ITEM: TIMESTEP
0
ITEM: NUMBER OF ATOMS
256
ITEM: BOX BOUNDS pp pp pp
0.0000000000000000e+00 1.2000000000000000e+02
0.0000000000000000e+00 6.0000000000000000e+01
0.0000000000000000e+00 6.0000000000000000e+01
ITEM: ATOMS id mol type x y z ix iy iz
1 1 1 0 1 0 0 0 0
2 1 2 0 4.4 0 0 0 0
5 1 1 6.4 1 0 0 0 0
6 1 2 6.4 4.4 0 0 0 0
9 1 1 12.8 1 0 0 0 0
10 1 2 12.8 4.4 0 0 0 0
13 1 1 19.2 1 0 0 0 0
14 1 2 19.2 4.4 0 0 0 0
17 1 1 25.6 1 0 0 0 0
18 1 2 25.6 4.4 0 0 0 0
21 1 1 32 1 0 0 0 0
22 1 2 32 4.4 0 0 0 0
25 1 1 38.4 1 0 0 0 0
26 1 2 38.4 4.4 0 0 0 0
29 1 1 44.8 1 0 0 0 0
30 1 2 44.8 4.4 0 0 0 0
129 5 1 60 1 0 0 0 0
130 5 2 60 4.4 0 0 0 0
133 5 1 66.4 1 0 0 0 0
134 5 2 66.4 4.4 0 0 0 0
137 5 1 72.8 1 0 0 0 0
138 5 2 72.8 4.4 0 0 0 0
141 5 1 79.2 1 0 0 0 0
142 5 2 79.2 4.4 0 0 0 0
145 5 1 85.6 1 0 0 0 0
146 5 2 85.6 4.4 0 0 0 0
149 5 1 92 1 0 0 0 0
150 5 2 92 4.4 0 0 0 0
153 5 1 98.4 1 0 0 0 0
154 5 2 98.4 4.4 0 0 0 0
157 5 1 104.8 1 0 0 0 0
158 5 2 104.8 4.4 0 0 0 0
68 3 3 3.2 25.6 5.38845e-16 0 0 0
72 3 3 9.6 25.6 5.38845e-16 0 0 0
76 3 3 16 25.6 5.38845e-16 0 0 0
80 3 3 22.4 25.6 5.38845e-16 0 0 0
84 3 3 28.8 25.6 5.38845e-16 0 0 0
88 3 3 35.2 25.6 5.38845e-16 0 0 0
92 3 3 41.6 25.6 5.38845e-16 0 0 0
96 3 3 48 25.6 5.38845e-16 0 0 0
196 7 3 63.2 25.6 5.38845e-16 0 0 0
200 7 3 69.6 25.6 5.38845e-16 0 0 0
204 7 3 76 25.6 5.38845e-16 0 0 0
208 7 3 82.4 25.6 5.38845e-16 0 0 0
212 7 3 88.8 25.6 5.38845e-16 0 0 0
216 7 3 95.2 25.6 5.38845e-16 0 0 0
220 7 3 101.6 25.6 5.38845e-16 0 0 0
224 7 3 108 25.6 5.38845e-16 0 0 0
65 3 1 0 31 0 0 0 0
67 3 1 3.2 29 1.22465e-16 0 0 0
69 3 1 6.4 31 0 0 0 0
71 3 1 9.6 29 1.22465e-16 0 0 0
73 3 1 12.8 31 0 0 0 0
75 3 1 16 29 1.22465e-16 0 0 0
77 3 1 19.2 31 0 0 0 0
79 3 1 22.4 29 1.22465e-16 0 0 0
81 3 1 25.6 31 0 0 0 0
83 3 1 28.8 29 1.22465e-16 0 0 0
85 3 1 32 31 0 0 0 0
87 3 1 35.2 29 1.22465e-16 0 0 0
89 3 1 38.4 31 0 0 0 0
91 3 1 41.6 29 1.22465e-16 0 0 0
93 3 1 44.8 31 0 0 0 0
95 3 1 48 29 1.22465e-16 0 0 0
193 7 1 60 31 0 0 0 0
195 7 1 63.2 29 1.22465e-16 0 0 0
197 7 1 66.4 31 0 0 0 0
199 7 1 69.6 29 1.22465e-16 0 0 0
201 7 1 72.8 31 0 0 0 0
203 7 1 76 29 1.22465e-16 0 0 0
205 7 1 79.2 31 0 0 0 0
207 7 1 82.4 29 1.22465e-16 0 0 0
209 7 1 85.6 31 0 0 0 0
211 7 1 88.8 29 1.22465e-16 0 0 0
213 7 1 92 31 0 0 0 0
215 7 1 95.2 29 1.22465e-16 0 0 0
217 7 1 98.4 31 0 0 0 0
219 7 1 101.6 29 1.22465e-16 0 0 0
221 7 1 104.8 31 0 0 0 0
223 7 1 108 29 1.22465e-16 0 0 0
66 3 2 0 34.4 0 0 0 0
70 3 2 6.4 34.4 0 0 0 0
74 3 2 12.8 34.4 0 0 0 0
78 3 2 19.2 34.4 0 0 0 0
82 3 2 25.6 34.4 0 0 0 0
86 3 2 32 34.4 0 0 0 0
90 3 2 38.4 34.4 0 0 0 0
94 3 2 44.8 34.4 0 0 0 0
194 7 2 60 34.4 0 0 0 0
198 7 2 66.4 34.4 0 0 0 0
202 7 2 72.8 34.4 0 0 0 0
206 7 2 79.2 34.4 0 0 0 0
210 7 2 85.6 34.4 0 0 0 0
214 7 2 92 34.4 0 0 0 0
218 7 2 98.4 34.4 0 0 0 0
222 7 2 104.8 34.4 0 0 0 0
3 1 1 3.2 59 1.22465e-16 0 -1 0
4 1 3 3.2 55.6 5.38845e-16 0 -1 0
7 1 1 9.6 59 1.22465e-16 0 -1 0
8 1 3 9.6 55.6 5.38845e-16 0 -1 0
11 1 1 16 59 1.22465e-16 0 -1 0
12 1 3 16 55.6 5.38845e-16 0 -1 0
15 1 1 22.4 59 1.22465e-16 0 -1 0
16 1 3 22.4 55.6 5.38845e-16 0 -1 0
19 1 1 28.8 59 1.22465e-16 0 -1 0
20 1 3 28.8 55.6 5.38845e-16 0 -1 0
23 1 1 35.2 59 1.22465e-16 0 -1 0
24 1 3 35.2 55.6 5.38845e-16 0 -1 0
27 1 1 41.6 59 1.22465e-16 0 -1 0
28 1 3 41.6 55.6 5.38845e-16 0 -1 0
31 1 1 48 59 1.22465e-16 0 -1 0
32 1 3 48 55.6 5.38845e-16 0 -1 0
131 5 1 63.2 59 1.22465e-16 0 -1 0
132 5 3 63.2 55.6 5.38845e-16 0 -1 0
135 5 1 69.6 59 1.22465e-16 0 -1 0
136 5 3 69.6 55.6 5.38845e-16 0 -1 0
139 5 1 76 59 1.22465e-16 0 -1 0
140 5 3 76 55.6 5.38845e-16 0 -1 0
143 5 1 82.4 59 1.22465e-16 0 -1 0
144 5 3 82.4 55.6 5.38845e-16 0 -1 0
147 5 1 88.8 59 1.22465e-16 0 -1 0
148 5 3 88.8 55.6 5.38845e-16 0 -1 0
151 5 1 95.2 59 1.22465e-16 0 -1 0
152 5 3 95.2 55.6 5.38845e-16 0 -1 0
155 5 1 101.6 59 1.22465e-16 0 -1 0
156 5 3 101.6 55.6 5.38845e-16 0 -1 0
159 5 1 108 59 1.22465e-16 0 -1 0
160 5 3 108 55.6 5.38845e-16 0 -1 0
33 2 1 0 1 30 0 0 0
34 2 2 0 4.4 30 0 0 0
37 2 1 6.4 1 30 0 0 0
38 2 2 6.4 4.4 30 0 0 0
41 2 1 12.8 1 30 0 0 0
42 2 2 12.8 4.4 30 0 0 0
45 2 1 19.2 1 30 0 0 0
46 2 2 19.2 4.4 30 0 0 0
49 2 1 25.6 1 30 0 0 0
50 2 2 25.6 4.4 30 0 0 0
53 2 1 32 1 30 0 0 0
54 2 2 32 4.4 30 0 0 0
57 2 1 38.4 1 30 0 0 0
58 2 2 38.4 4.4 30 0 0 0
61 2 1 44.8 1 30 0 0 0
62 2 2 44.8 4.4 30 0 0 0
161 6 1 60 1 30 0 0 0
162 6 2 60 4.4 30 0 0 0
165 6 1 66.4 1 30 0 0 0
166 6 2 66.4 4.4 30 0 0 0
169 6 1 72.8 1 30 0 0 0
170 6 2 72.8 4.4 30 0 0 0
173 6 1 79.2 1 30 0 0 0
174 6 2 79.2 4.4 30 0 0 0
177 6 1 85.6 1 30 0 0 0
178 6 2 85.6 4.4 30 0 0 0
181 6 1 92 1 30 0 0 0
182 6 2 92 4.4 30 0 0 0
185 6 1 98.4 1 30 0 0 0
186 6 2 98.4 4.4 30 0 0 0
189 6 1 104.8 1 30 0 0 0
190 6 2 104.8 4.4 30 0 0 0
100 4 3 3.2 25.6 30 0 0 0
104 4 3 9.6 25.6 30 0 0 0
108 4 3 16 25.6 30 0 0 0
112 4 3 22.4 25.6 30 0 0 0
116 4 3 28.8 25.6 30 0 0 0
120 4 3 35.2 25.6 30 0 0 0
124 4 3 41.6 25.6 30 0 0 0
128 4 3 48 25.6 30 0 0 0
228 8 3 63.2 25.6 30 0 0 0
232 8 3 69.6 25.6 30 0 0 0
236 8 3 76 25.6 30 0 0 0
240 8 3 82.4 25.6 30 0 0 0
244 8 3 88.8 25.6 30 0 0 0
248 8 3 95.2 25.6 30 0 0 0
252 8 3 101.6 25.6 30 0 0 0
256 8 3 108 25.6 30 0 0 0
97 4 1 0 31 30 0 0 0
99 4 1 3.2 29 30 0 0 0
101 4 1 6.4 31 30 0 0 0
103 4 1 9.6 29 30 0 0 0
105 4 1 12.8 31 30 0 0 0
107 4 1 16 29 30 0 0 0
109 4 1 19.2 31 30 0 0 0
111 4 1 22.4 29 30 0 0 0
113 4 1 25.6 31 30 0 0 0
115 4 1 28.8 29 30 0 0 0
117 4 1 32 31 30 0 0 0
119 4 1 35.2 29 30 0 0 0
121 4 1 38.4 31 30 0 0 0
123 4 1 41.6 29 30 0 0 0
125 4 1 44.8 31 30 0 0 0
127 4 1 48 29 30 0 0 0
225 8 1 60 31 30 0 0 0
227 8 1 63.2 29 30 0 0 0
229 8 1 66.4 31 30 0 0 0
231 8 1 69.6 29 30 0 0 0
233 8 1 72.8 31 30 0 0 0
235 8 1 76 29 30 0 0 0
237 8 1 79.2 31 30 0 0 0
239 8 1 82.4 29 30 0 0 0
241 8 1 85.6 31 30 0 0 0
243 8 1 88.8 29 30 0 0 0
245 8 1 92 31 30 0 0 0
247 8 1 95.2 29 30 0 0 0
249 8 1 98.4 31 30 0 0 0
251 8 1 101.6 29 30 0 0 0
253 8 1 104.8 31 30 0 0 0
255 8 1 108 29 30 0 0 0
98 4 2 0 34.4 30 0 0 0
102 4 2 6.4 34.4 30 0 0 0
106 4 2 12.8 34.4 30 0 0 0
110 4 2 19.2 34.4 30 0 0 0
114 4 2 25.6 34.4 30 0 0 0
118 4 2 32 34.4 30 0 0 0
122 4 2 38.4 34.4 30 0 0 0
126 4 2 44.8 34.4 30 0 0 0
226 8 2 60 34.4 30 0 0 0
230 8 2 66.4 34.4 30 0 0 0
234 8 2 72.8 34.4 30 0 0 0
238 8 2 79.2 34.4 30 0 0 0
242 8 2 85.6 34.4 30 0 0 0
246 8 2 92 34.4 30 0 0 0
250 8 2 98.4 34.4 30 0 0 0
254 8 2 104.8 34.4 30 0 0 0
35 2 1 3.2 59 30 0 -1 0
36 2 3 3.2 55.6 30 0 -1 0
39 2 1 9.6 59 30 0 -1 0
40 2 3 9.6 55.6 30 0 -1 0
43 2 1 16 59 30 0 -1 0
44 2 3 16 55.6 30 0 -1 0
47 2 1 22.4 59 30 0 -1 0
48 2 3 22.4 55.6 30 0 -1 0
51 2 1 28.8 59 30 0 -1 0
52 2 3 28.8 55.6 30 0 -1 0
55 2 1 35.2 59 30 0 -1 0
56 2 3 35.2 55.6 30 0 -1 0
59 2 1 41.6 59 30 0 -1 0
60 2 3 41.6 55.6 30 0 -1 0
63 2 1 48 59 30 0 -1 0
64 2 3 48 55.6 30 0 -1 0
163 6 1 63.2 59 30 0 -1 0
164 6 3 63.2 55.6 30 0 -1 0
167 6 1 69.6 59 30 0 -1 0
168 6 3 69.6 55.6 30 0 -1 0
171 6 1 76 59 30 0 -1 0
172 6 3 76 55.6 30 0 -1 0
175 6 1 82.4 59 30 0 -1 0
176 6 3 82.4 55.6 30 0 -1 0
179 6 1 88.8 59 30 0 -1 0
180 6 3 88.8 55.6 30 0 -1 0
183 6 1 95.2 59 30 0 -1 0
184 6 3 95.2 55.6 30 0 -1 0
187 6 1 101.6 59 30 0 -1 0
188 6 3 101.6 55.6 30 0 -1 0
191 6 1 108 59 30 0 -1 0
192 6 3 108 55.6 30 0 -1 0
ITEM: TIMESTEP
5000
ITEM: NUMBER OF ATOMS
256
ITEM: BOX BOUNDS pp pp pp
0.0000000000000000e+00 1.2000000000000000e+02
0.0000000000000000e+00 6.0000000000000000e+01
0.0000000000000000e+00 6.0000000000000000e+01
ITEM: ATOMS id mol type x y z ix iy iz
14 1 2 26.3837 4.80936 4.40099 0 0 0
13 1 1 26.8582 2.31471 2.02657 0 0 0
150 5 2 88.8661 57.1127 3.68869 0 -1 0
154 5 2 96.7093 56.4224 3.12332 0 -1 0
96 3 3 36.2498 15.2994 2.34292 0 0 0
80 3 3 16.172 25.4829 6.61449 0 0 0
79 3 1 17.94 28.0252 5.82308 0 0 0
88 3 3 28.0593 24.2444 0.541303 0 0 0
87 3 1 29.182 25.0344 3.76155 0 0 0
89 3 1 32.7295 24.5279 5.10516 0 0 0
91 3 1 35.269 22.594 2.85145 0 0 0
93 3 1 37.9058 20.823 4.68867 0 0 0
95 3 1 38.3815 17.2698 3.98534 0 0 0
203 7 1 78.6572 29.2783 2.48576 0 0 0
205 7 1 81.1354 26.8148 3.85965 0 0 0
207 7 1 83.7968 25.5809 1.56401 0 0 0
209 7 1 87.2704 26.6088 2.54773 0 0 0
210 7 2 88.2922 26.7839 5.76113 0 0 0
211 7 1 89.6565 27.0645 59.6108 0 0 -1
213 7 1 93.0831 27.5311 0.730137 0 0 0
214 7 2 95.5607 25.4207 60.0129 0 0 -1
76 3 3 11.8038 31.4661 4.55387 0 0 0
75 3 1 14.256 31.3777 1.95643 0 0 0
77 3 1 17.5439 29.8603 2.48676 0 0 0
81 3 1 21.3966 28.7906 7.27859 0 0 0
82 3 2 22.3519 32.0975 7.2974 0 0 0
90 3 2 33.6462 24.9957 8.49677 0 0 0
94 3 2 39.9771 22.5084 6.92496 0 0 0
193 7 1 64.589 25.2563 3.33732 0 0 0
195 7 1 66.7777 26.6643 0.657706 0 0 0
197 7 1 69.3323 29.0465 2.08749 0 0 0
199 7 1 72.7426 28.7622 0.650753 0 0 0
202 7 2 74.5475 27.5695 6.5519 0 0 0
201 7 1 75.1571 28.2118 3.3529 0 0 0
206 7 2 81.1986 25.8072 7.16782 0 0 0
216 7 3 90.6246 32.3873 3.51598 0 0 0
217 7 1 96.6188 31.0839 4.13819 0 0 0
218 7 2 98.8983 28.9241 5.41873 0 0 0
215 7 1 93.1162 30.0852 3.39801 0 0 0
219 7 1 97.5946 34.5628 4.10994 0 0 0
221 7 1 100.903 35.2483 5.65892 0 0 0
222 7 2 102.702 33.1838 7.72201 0 0 0
72 3 3 8.22708 34.4676 59.643 0 0 -1
198 7 2 68.5359 30.6363 4.9704 0 0 0
220 7 3 95.172 37.1155 3.90858 0 0 0
223 7 1 102.43 38.2329 4.00315 0 0 0
224 7 3 100.901 40.565 1.82433 0 0 0
24 1 3 36.4096 54.2436 2.47344 0 -1 0
28 1 3 42.9693 51.7553 1.96895 0 -1 0
144 5 3 80.1633 48.9647 58.7222 0 -1 -1
143 5 1 80.6051 52.0761 59.8326 0 -1 -1
148 5 3 87.7987 49.1453 59.686 0 -1 -1
15 1 1 28.8917 59.4023 3.05489 0 -1 0
17 1 1 30.1424 59.6699 6.73189 0 -1 0
19 1 1 33.8093 59.2084 6.40326 0 -1 0
16 1 3 30.5551 57.6544 0.833125 0 -1 0
20 1 3 35.1247 1.44119 4.17512 0 0 0
29 1 1 45.3955 52.8821 7.84727 0 -1 0
27 1 1 42.6718 52.5145 5.37363 0 -1 0
31 1 1 48.5408 54.2432 6.25416 0 -1 0
32 1 3 49.2153 54.1583 2.81886 0 -1 0
132 5 3 62.2652 54.3514 54.8055 0 -1 -1
142 5 2 78.2629 57.446 0.79846 0 -1 0
141 5 1 78.4513 54.8362 58.5702 0 -1 -1
146 5 2 83.3957 55.6714 4.15479 0 -1 0
145 5 1 83.5798 53.3113 1.65976 0 -1 0
149 5 1 89.4287 54.9126 1.05724 0 -1 0
147 5 1 86.9745 52.2065 0.297807 0 -1 0
158 5 2 102.732 53.7757 59.0442 0 -1 -1
84 3 3 22.3856 23.4911 5.24352 0 0 0
83 3 1 23.6894 26.0551 6.4257 0 0 0
85 3 1 27.341 26.8219 6.44009 0 0 0
86 3 2 28.4975 29.1948 8.22726 0 0 0
194 7 2 64.2324 27.1593 6.24154 0 0 0
18 1 2 28.3599 60.0474 9.79986 0 -1 0
21 1 1 35.4083 56.2678 8.12572 0 -1 0
22 1 2 34.427 54.8362 10.9771 0 -1 0
23 1 1 36.7363 53.7956 5.56608 0 -1 0
25 1 1 39.4092 51.7883 7.25677 0 -1 0
30 1 2 45.2488 52.6473 11.1887 0 -1 0
26 1 2 39.5105 50.3271 10.3428 0 -1 0
192 6 3 101.346 6.74748 18.4235 0 0 0
191 6 1 103.754 4.3814 19.295 0 0 0
188 6 3 98.2326 2.6427 23.6584 0 0 0
189 6 1 104.541 2.58897 22.2756 0 0 0
187 6 1 101.486 2.41683 24.4454 0 0 0
190 6 2 106.865 0.187058 22.0226 0 0 0
248 8 3 95.246 23.2998 29.4502 0 0 0
50 2 2 25.4263 3.20768 26.5413 0 0 0
46 2 2 24.5763 4.90569 34.1484 0 0 0
54 2 2 31.2041 6.07548 28.2423 0 0 0
49 2 1 26.6877 0.974629 28.9983 0 0 0
51 2 1 30.1915 0.312752 30.1314 0 0 0
57 2 1 37.6367 5.70255 29.4043 0 0 0
53 2 1 32.1723 3.34467 29.8687 0 0 0
55 2 1 35.8054 2.4844 30.0312 0 0 0
60 2 3 42.6866 2.36451 29.2497 0 0 0
59 2 1 41.4059 5.44662 29.5041 0 0 0
63 2 1 47.115 8.38734 29.1734 0 0 0
64 2 3 48.6031 5.78055 30.5769 0 0 0
161 6 1 70.6574 58.1723 28.6335 0 -1 0
163 6 1 73.8373 57.6516 30.3731 0 -1 0
162 6 2 69.2208 1.18436 28.1964 0 0 0
165 6 1 76.4182 0.0822189 29.7349 0 0 0
167 6 1 79.6433 59.0666 28.002 0 -1 0
169 6 1 81.9236 1.89832 28.0686 0 0 0
170 6 2 81.2684 4.60036 29.8641 0 0 0
166 6 2 75.9671 3.39264 30.3241 0 0 0
173 6 1 87.6199 3.40161 29.7679 0 0 0
171 6 1 85.4765 1.10497 27.6257 0 0 0
177 6 1 92.9873 1.92478 31.7155 0 0 0
175 6 1 91.1774 3.19965 28.8645 0 0 0
176 6 3 92.0839 2.36912 25.8543 0 0 0
184 6 3 97.221 3.84817 30.2045 0 0 0
181 6 1 97.7196 57.9845 31.3788 0 -1 0
183 6 1 99.459 1.10642 30.3708 0 0 0
185 6 1 101.976 0.849793 27.8155 0 0 0
186 6 2 104.168 58.546 28.2837 0 -1 0
34 2 2 7.12711 6.42947 34.4296 0 0 0
58 2 2 35.8995 8.73622 29.4171 0 0 0
61 2 1 43.3508 8.67589 29.296 0 0 0
62 2 2 41.9416 11.6996 29.7146 0 0 0
174 6 2 86.3461 4.90019 32.8399 0 0 0
128 4 3 47.8878 27.5393 33.5939 0 0 0
240 8 3 82.3307 26.9902 30.4599 0 0 0
244 8 3 88.343 26.04 28.3184 0 0 0
243 8 1 89.5673 28.0894 30.7092 0 0 0
247 8 1 95.5726 26.7162 29.0603 0 0 0
252 8 3 102.014 23.586 28.819 0 0 0
106 4 2 14.0693 35.2221 34.5165 0 0 0
120 4 3 34.8448 24.604 33.3745 0 0 0
119 4 1 34.71 28.0667 33.6899 0 0 0
121 4 1 37.3399 30.3361 32.5182 0 0 0
124 4 3 41.664 26.1088 31.9105 0 0 0
123 4 1 40.7787 28.9541 33.4158 0 0 0
125 4 1 43.1479 31.2968 34.8588 0 0 0
127 4 1 46.6148 30.2255 35.1153 0 0 0
228 8 3 68.2924 35.4166 32.5038 0 0 0
239 8 1 83.5554 28.3966 33.2912 0 0 0
241 8 1 87.2881 28.9951 33.661 0 0 0
245 8 1 93.1936 29.2206 30.391 0 0 0
246 8 2 94.1838 32.1933 31.5641 0 0 0
249 8 1 98.8508 28.6896 28.5247 0 0 0
250 8 2 98.6791 32.0298 28.5217 0 0 0
251 8 1 101.749 26.7629 29.2899 0 0 0
254 8 2 106.118 31.48 28.5716 0 0 0
253 8 1 105.031 28.577 29.982 0 0 0
42 2 2 16.1536 6.49237 32.2089 0 0 0
45 2 1 22.5477 2.5164 32.9388 0 0 0
47 2 1 24.2026 59.7666 31.4934 0 -1 0
52 2 3 31.0035 58.2391 32.7017 0 -1 0
56 2 3 37.0053 59.2949 29.1145 0 -1 0
164 6 3 74.7302 54.5926 31.3906 0 -1 0
168 6 3 80.8342 55.9432 28.4829 0 -1 0
172 6 3 86.7415 58.2023 26.5268 0 -1 0
180 6 3 92.6378 56.4984 28.8872 0 -1 0
179 6 1 94.1313 58.3334 31.1036 0 -1 0
33 2 1 8.03818 4.93087 37.4045 0 0 0
35 2 1 10.7034 5.7176 40.0274 0 0 0
37 2 1 13.2054 7.80265 38.5448 0 0 0
38 2 2 12.721 9.98381 36.1514 0 0 0
39 2 1 16.2593 5.86618 38.39 0 0 0
178 6 2 94.7088 4.14599 33.7244 0 0 0
108 4 3 16.2646 26.6197 37.32 0 0 0
112 4 3 22.5933 25.9065 39.1413 0 0 0
116 4 3 28.0801 24.7768 35.7183 0 0 0
236 8 3 76.4885 26.6964 33.1898 0 0 0
256 8 3 105.803 24.3713 34.4689 0 0 0
103 4 1 12.0102 31.9468 39.1668 0 0 0
105 4 1 14.1801 32.1224 36.2953 0 0 0
107 4 1 16.9164 29.7349 36.226 0 0 0
111 4 1 23.0332 29.2146 38.2069 0 0 0
109 4 1 20.3859 31.3283 36.7413 0 0 0
110 4 2 21.2614 33.8769 34.9233 0 0 0
113 4 1 26.2779 30.6641 37.6106 0 0 0
114 4 2 26.7843 33.9203 38.5119 0 0 0
115 4 1 28.8002 28.1842 36.225 0 0 0
117 4 1 32.0011 29.9782 35.2136 0 0 0
118 4 2 32.2956 32.9036 36.8496 0 0 0
126 4 2 42.1751 34.0642 36.5286 0 0 0
232 8 3 70.7428 29.2182 33.8235 0 0 0
227 8 1 68.4545 35.4085 35.9201 0 0 0
229 8 1 70.269 33.1807 38.3542 0 0 0
231 8 1 71.8804 30.3667 36.5992 0 0 0
235 8 1 77.7581 28.4792 35.8533 0 0 0
233 8 1 75.2535 30.3552 37.8162 0 0 0
237 8 1 81.4539 28.9591 36.1356 0 0 0
238 8 2 82.73 30.6166 38.7678 0 0 0
242 8 2 88.5622 29.2535 36.9612 0 0 0
255 8 1 107.038 26.2526 31.9555 0 0 0
99 4 1 10.1943 36.6222 42.4841 0 0 0
101 4 1 9.80387 34.8864 39.4091 0 0 0
102 4 2 8.27245 36.2551 36.5856 0 0 0
98 4 2 14.7854 40.9016 40.7864 0 0 0
122 4 2 36.8268 33.5709 31.6438 0 0 0
225 8 1 65.7992 36.8569 37.9451 0 0 0
226 8 2 64.1034 34.8118 40.2255 0 0 0
230 8 2 68.6573 32.7294 41.4132 0 0 0
41 2 1 17.0395 4.76211 34.8452 0 0 0
40 2 3 17.3627 3.88459 40.8857 0 0 0
43 2 1 19.063 1.86932 34.4705 0 0 0
44 2 3 18.155 58.735 35.7609 0 -1 0
48 2 3 24.2433 56.4083 32.4814 0 -1 0
182 6 2 99.0799 56.1393 33.9498 0 -1 0
36 2 3 11.228 3.42843 42.5275 0 0 0
104 4 3 12.6988 30.3041 42.0513 0 0 0
234 8 2 75.998 31.9517 40.6108 0 0 0
100 4 3 8.6865 35.5157 45.3054 0 0 0
97 4 1 13.2004 38.8108 43.0176 0 0 0
66 3 2 6.16318 37.2199 48.6344 0 0 -1
3 1 1 13.7476 5.30141 56.7126 0 0 -1
4 1 3 13.1228 4.30981 53.5257 0 0 -1
9 1 1 22.4154 4.67279 58.5742 0 0 -1
5 1 1 16.6363 4.42915 58.7758 0 0 -1
7 1 1 19.337 3.47062 56.6884 0 0 -1
10 1 2 22.1812 6.69671 1.33979 0 0 0
134 5 2 67.8655 0.887297 54.276 0 0 -1
1 1 1 12.5916 8.30945 58.491 0 0 -1
2 1 2 13.4325 8.01429 1.87184 0 0 0
6 1 2 17.348 5.33143 2.22111 0 0 0
92 3 3 34.2926 21.7546 59.7046 0 0 -1
200 7 3 73.622 27.7487 57.4995 0 0 -1
204 7 3 79.2909 30.8256 59.4776 0 0 -1
208 7 3 83.2132 24.6948 58.4579 0 0 -1
73 3 1 14.2418 32.9469 58.6752 0 0 -1
70 3 2 12.9534 34.9005 52.0793 0 0 -1
78 3 2 20.1781 30.3497 0.575925 0 0 0
74 3 2 16.5636 32.4215 56.3756 0 0 -1
196 7 3 66.7498 25.5854 57.4432 0 0 -1
212 7 3 88.4295 29.1147 57.0805 0 0 -1
68 3 3 7.81074 40.8031 56.6249 0 0 -1
67 3 1 8.81466 39.0692 53.8122 0 0 -1
65 3 1 7.5015 39.7424 50.4232 0 0 -1
71 3 1 10.8468 34.1149 57.6552 0 0 -1
69 3 1 10.8689 36.0487 54.3978 0 0 -1
136 5 3 69.232 51.991 54.4463 0 -1 -1
140 5 3 75.8625 51.3188 53.9804 0 -1 -1
139 5 1 75.9549 54.2665 55.8241 0 -1 -1
159 5 1 100.721 53.0474 53.1616 0 -1 -1
160 5 3 97.8 52.659 51.5612 0 -1 -1
8 1 3 19.0533 1.21606 54.3431 0 0 -1
12 1 3 25.1995 59.5167 56.8357 0 -1 -1
11 1 1 24.5918 1.83525 59.1606 0 0 -1
129 5 1 62.4827 58.8784 51.1213 0 -1 -1
131 5 1 64.3058 56.4221 53.1766 0 -1 -1
130 5 2 59.5267 0.0270382 52.1982 0 0 -1
135 5 1 69.7225 55.3325 55.8918 0 -1 -1
133 5 1 67.1262 57.7923 55.1511 0 -1 -1
138 5 2 73.4881 59.8941 57.1089 0 -1 -1
137 5 1 73.1697 56.6192 56.1326 0 -1 -1
151 5 1 92.4141 54.5397 59.0705 0 -1 -1
152 5 3 92.4306 52.1384 56.7218 0 -1 -1
157 5 1 100.651 54.7004 56.4563 0 -1 -1
153 5 1 95.1847 56.5173 60.04 0 -1 -1
155 5 1 97.657 57.0522 56.9871 0 -1 -1
156 5 3 95.8606 58.1198 54.3089 0 -1 -1
ITEM: TIMESTEP
10000
ITEM: NUMBER OF ATOMS
256
ITEM: BOX BOUNDS pp pp pp
0.0000000000000000e+00 1.2000000000000000e+02
0.0000000000000000e+00 6.0000000000000000e+01
0.0000000000000000e+00 6.0000000000000000e+01
ITEM: ATOMS id mol type x y z ix iy iz
20 1 3 33.3739 2.23821 3.59084 0 0 0
19 1 1 35.9366 1.69293 5.75425 0 0 0
134 5 2 63.4673 58.0635 59.4063 0 -1 -1
7 1 1 24.35 8.9195 2.55274 0 0 0
8 1 3 23.2576 12.0872 2.08042 0 0 0
9 1 1 26.2852 7.67696 5.68186 0 0 0
11 1 1 29.8538 7.9426 5.03303 0 0 0
94 3 2 26.2161 9.02677 3.46717 0 0 0
12 1 3 30.1541 7.764 1.76871 0 0 0
93 3 1 28.1034 11.7533 2.53837 0 0 0
95 3 1 30.3593 11.4649 59.81 0 0 -1
16 1 3 37.0693 8.66293 3.19818 0 0 0
89 3 1 23.8404 16.3693 3.34772 0 0 0
90 3 2 21.5488 14.562 5.7023 0 0 0
87 3 1 22.5997 18.4063 0.829297 0 0 0
91 3 1 27.177 15.3084 2.84712 0 0 0
84 3 3 19.6934 23.5317 56.6151 0 0 -1
85 3 1 19.6937 20.2231 1.75641 0 0 0
83 3 1 20.4604 23.3902 0.0966473 0 0 0
86 3 2 18.0368 20.0531 4.73276 0 0 0
196 7 3 67.0239 18.5135 13.0904 0 0 0
80 3 3 17.2561 29.5113 59.0653 0 0 -1
79 3 1 20.1144 29.5557 0.890595 0 0 0
81 3 1 20.823 26.2367 2.49427 0 0 0
82 3 2 21.9 26.0997 5.72535 0 0 0
207 7 1 77.8857 27.113 6.31258 0 0 0
208 7 3 75.5032 27.9458 4.16118 0 0 0
209 7 1 81.2159 28.5963 6.85174 0 0 0
211 7 1 80.9248 32.3149 7.39484 0 0 0
214 7 2 85.791 32.9136 3.99463 0 0 0
77 3 1 23.1014 31.3419 59.578 0 0 -1
78 3 2 26.0004 31.1222 1.00623 0 0 0
213 7 1 83.2015 34.5063 4.94501 0 0 0
217 7 1 85.8538 39.8658 4.46622 0 0 0
218 7 2 86.5931 39.4629 1.24927 0 0 0
30 1 2 41.6606 47.579 59.4645 0 -1 -1
219 7 1 88.3288 41.6032 6.91853 0 0 0
222 7 2 93.4104 38.6922 4.93192 0 0 0
221 7 1 90.9805 39.0958 7.41264 0 0 0
25 1 1 40.6837 55.0867 0.870917 0 -1 0
26 1 2 42.204 53.301 3.48482 0 -1 0
132 5 3 60.5013 1.86872 7.32774 0 0 0
154 5 2 92.5035 52.7043 58.6898 0 -1 -1
23 1 1 39.4978 58.5918 1.33505 0 -1 0
21 1 1 38.7364 59.3708 4.88535 0 -1 0
129 5 1 57.2954 58.6122 3.10492 0 -1 0
130 5 2 58.1919 56.0774 0.973208 0 -1 0
131 5 1 60.5834 59.7565 4.61202 0 -1 0
133 5 1 63.4301 58.6071 2.65924 0 -1 0
136 5 3 66.8178 59.4645 7.92916 0 -1 0
135 5 1 66.6254 59.6851 4.44638 0 -1 0
137 5 1 69.6096 60.1732 2.27555 0 -1 0
139 5 1 72.7178 58.5786 3.53832 0 -1 0
140 5 3 72.967 57.7728 6.83247 0 -1 0
150 5 2 85.399 0.355 59.5897 0 0 -1
14 1 2 31.6843 8.01132 11.1482 0 0 0
18 1 2 38.5275 4.1856 10.6765 0 0 0
17 1 1 37.3071 4.52206 7.58256 0 0 0
10 1 2 24.9495 5.50843 8.05515 0 0 0
13 1 1 32.3911 8.09183 7.61657 0 0 0
15 1 1 35.8602 7.57012 6.2306 0 0 0
195 7 1 69.627 18.2764 15.2032 0 0 0
197 7 1 71.5045 21.2801 15.806 0 0 0
193 7 1 70.0699 15.8466 17.897 0 0 0
194 7 2 72.1875 13.092 17.5665 0 0 0
199 7 1 70.5586 24.1679 13.7081 0 0 0
200 7 3 68.5247 24.5971 10.9996 0 0 0
205 7 1 76.823 25.7422 9.3458 0 0 0
206 7 2 78.2675 23.0124 10.8389 0 0 0
204 7 3 71.914 29.5498 8.97391 0 0 0
203 7 1 74.268 27.8618 10.6564 0 0 0
210 7 2 84.0361 27.0415 5.84536 0 0 0
212 7 3 77.6602 33.4453 7.7531 0 0 0
216 7 3 82.2126 38.5831 9.44724 0 0 0
215 7 1 83.6177 37.7326 6.36703 0 0 0
224 7 3 88.1709 36.4968 12.618 0 0 0
223 7 1 90.9321 36.7706 10.373 0 0 0
220 7 3 87.1287 43.721 9.31718 0 0 0
22 1 2 40.8994 58.4281 7.20944 0 -1 0
62 2 2 30.7562 59.6413 18.1705 0 -1 0
188 6 3 104.841 58.7338 18.9958 0 -1 0
198 7 2 74.6036 20.9522 16.8783 0 0 0
201 7 1 73.5406 26.2952 13.9114 0 0 0
202 7 2 75.7939 26.3861 16.5135 0 0 0
164 6 3 82.312 51.6157 12.6649 0 -1 0
161 6 1 82.2193 46.542 16.1448 0 -1 0
163 6 1 82.5766 50.1859 15.7271 0 -1 0
168 6 3 87.0259 55.3408 14.707 0 -1 0
167 6 1 85.9701 54.7634 17.7506 0 -1 0
58 2 2 29.7354 5.8133 23.2445 0 0 0
57 2 1 29.9048 3.27228 25.4247 0 0 0
59 2 1 30.026 59.9743 24.0292 0 -1 0
61 2 1 32.1068 59.099 21.3144 0 -1 0
63 2 1 35.4023 -0.0109107 22.0497 0 0 0
172 6 3 92.2577 59.0357 18.517 0 -1 0
173 6 1 89.9695 0.846477 23.9525 0 0 0
175 6 1 93.3309 2.32084 24.2089 0 0 0
176 6 3 94.435 4.56952 21.7853 0 0 0
189 6 1 110.17 57.7376 22.4963 0 -1 0
191 6 1 112.014 59.2205 19.6835 0 -1 0
190 6 2 110.973 57.4764 25.7571 0 -1 0
192 6 3 111.171 1.5411 17.6509 0 0 0
256 8 3 99.1741 18.8473 23.2224 0 0 0
255 8 1 100.078 22.1034 23.2865 0 0 0
253 8 1 98.9101 24.6155 25.7584 0 0 0
254 8 2 99.863 27.892 25.8431 0 0 0
162 6 2 83.8559 45.5245 18.9207 0 -1 0
166 6 2 83.3762 50.4438 21.7548 0 -1 0
169 6 1 86.7752 56.7288 20.9003 0 -1 0
170 6 2 85.8629 55.4276 23.7539 0 -1 0
165 6 1 84.1367 51.5225 18.5842 0 -1 0
171 6 1 89.754 58.9968 20.7961 0 -1 0
180 6 3 98.206 59.2685 20.5259 0 -1 0
179 6 1 97.644 58.4589 23.785 0 -1 0
184 6 3 101.036 52.9627 19.6829 0 -1 0
183 6 1 101.755 53.7684 23.0178 0 -1 0
181 6 1 98.8999 55.1991 25.1269 0 -1 0
185 6 1 105.246 54.9493 24.1327 0 -1 0
187 6 1 106.618 57.2811 21.6154 0 -1 0
45 2 1 14.6199 3.58374 32.9692 0 0 0
49 2 1 20.5894 4.10789 31.1318 0 0 0
51 2 1 24.1043 3.60504 32.3176 0 0 0
53 2 1 26.3885 5.35801 29.9086 0 0 0
52 2 3 25.3837 1.18541 34.4485 0 0 0
55 2 1 29.8505 3.62397 29.1927 0 0 0
56 2 3 31.7485 1.51249 31.1626 0 0 0
64 2 3 36.3306 59.8186 25.1855 0 -1 0
42 2 2 8.32978 7.86577 33.6991 0 0 0
46 2 2 13.5542 5.04652 30.2744 0 0 0
50 2 2 19.8247 5.80114 28.3235 0 0 0
54 2 2 24.8067 6.5873 27.3272 0 0 0
248 8 3 90.6763 25.7107 28.0411 0 0 0
252 8 3 94.3981 20.2336 27.5972 0 0 0
251 8 1 96.3696 23.0782 28.0329 0 0 0
244 8 3 85.407 29.4811 31.0322 0 0 0
240 8 3 82.4502 35.0058 32.4281 0 0 0
243 8 1 87.5391 29.6538 33.5739 0 0 0
245 8 1 91.3012 28.998 33.5618 0 0 0
247 8 1 92.595 26.5838 30.6754 0 0 0
250 8 2 98.4205 26.7731 32.3559 0 0 0
249 8 1 95.9235 25.1495 30.8954 0 0 0
246 8 2 92.8447 28.3609 36.5393 0 0 0
60 2 3 29.722 57.3411 26.1893 0 -1 0
174 6 2 88.2377 59.6375 26.7763 0 -1 0
177 6 1 95.4239 0.000332782 26.1459 0 0 0
178 6 2 95.5484 59.5088 29.6303 0 -1 0
182 6 2 98.8348 54.8186 28.4895 0 -1 0
186 6 2 106.325 54.7265 27.2494 0 -1 0
43 2 1 12.1673 3.45988 35.8686 0 0 0
41 2 1 10.8525 6.89627 35.9214 0 0 0
47 2 1 18.1652 3.06147 33.8194 0 0 0
44 2 3 12.6378 1.42033 38.7297 0 0 0
48 2 3 19.3945 2.12799 36.9927 0 0 0
37 2 1 12.8063 12.6641 37.6887 0 0 0
38 2 2 9.73772 13.862 36.8327 0 0 0
39 2 1 13.797 9.06893 36.8256 0 0 0
33 2 1 16.965 15.5612 34.3033 0 0 0
34 2 2 15.0508 16.6934 31.8328 0 0 0
114 4 2 24.9568 24.7844 42.157 0 0 0
118 4 2 30.3585 28.1244 40.3708 0 0 0
117 4 1 29.0064 30.944 41.8491 0 0 0
119 4 1 30.4909 34.4044 41.6463 0 0 0
121 4 1 33.0927 34.7981 44.5924 0 0 0
227 8 1 74.776 31.0332 38.9413 0 0 0
225 8 1 71.3949 30.9095 37.4529 0 0 0
110 4 2 19.6247 32.4833 36.5862 0 0 0
120 4 3 29.501 36.8674 39.5315 0 0 0
123 4 1 36.2187 36.2759 42.8182 0 0 0
124 4 3 36.1141 38.4864 40.2078 0 0 0
125 4 1 39.5677 34.7129 43.2987 0 0 0
128 4 3 43.1774 38.9614 40.2559 0 0 0
228 8 3 77.4245 32.7053 37.1483 0 0 0
236 8 3 79.0354 39.3943 36.6655 0 0 0
235 8 1 80.4466 37.8021 39.3755 0 0 0
239 8 1 84.1533 34.4378 35.5094 0 0 0
237 8 1 83.9299 36.5419 38.7847 0 0 0
241 8 1 87.0423 32.1686 36.1404 0 0 0
242 8 2 87.7116 31.6387 39.634 0 0 0
40 2 3 17.1854 8.02673 37.2577 0 0 0
35 2 1 15.8416 14.6624 37.6641 0 0 0
36 2 3 18.2157 14.4197 40.1671 0 0 0
226 8 2 69.4759 28.1132 37.9164 0 0 0
112 4 3 19.1106 28.6098 45.1764 0 0 0
111 4 1 20.261 29.0346 41.8732 0 0 0
113 4 1 23.7033 27.7161 41.0309 0 0 0
115 4 1 25.4031 30.9842 41.634 0 0 0
122 4 2 33.334 32.6021 47.1003 0 0 0
126 4 2 39.7878 31.3183 43.4205 0 0 0
229 8 1 74.2257 32.293 42.4888 0 0 0
230 8 2 73.8965 30.5402 45.236 0 0 0
233 8 1 78.7406 36.1432 42.3423 0 0 0
234 8 2 80.2811 34.4473 44.9749 0 0 0
107 4 1 20.4804 35.047 42.2922 0 0 0
108 4 3 18.9395 35.4532 45.3272 0 0 0
109 4 1 19.5066 32.1809 40.1034 0 0 0
116 4 3 23.5931 33.2402 40.2219 0 0 0
127 4 1 42.6687 36.8226 42.733 0 0 0
232 8 3 73.6841 38.546 40.6885 0 0 0
231 8 1 75.2249 35.8252 42.3695 0 0 0
238 8 2 86.5624 36.25 41.1702 0 0 0
105 4 1 23.1047 37.3712 40.9153 0 0 0
106 4 2 25.1302 37.1837 38.2206 0 0 0
2 1 2 30.4288 5.79503 54.0624 0 0 -1
69 3 1 21.3006 32.885 48.1034 0 0 -1
71 3 1 21.737 31.5245 51.5314 0 0 -1
68 3 3 16.2774 34.6445 51.2397 0 0 -1
97 4 1 16.9398 38.9995 49.8208 0 0 0
98 4 2 15.1329 41.705 50.7597 0 0 0
99 4 1 20.5328 38.8284 49.0437 0 0 0
65 3 1 19.8158 38.6123 47.3632 0 0 -1
67 3 1 18.9909 35.4904 49.2288 0 0 -1
66 3 2 22.0616 38.3272 44.9975 0 0 -1
70 3 2 23.8104 32.7733 45.5164 0 0 -1
100 4 3 22.5362 37.1504 51.211 0 0 0
104 4 3 26.2196 36.506 45.697 0 0 0
74 3 2 27.0366 34.4954 53.5667 0 0 -1
101 4 1 21.3489 40.4411 45.9383 0 0 0
102 4 2 20.35 43.6945 45.4952 0 0 0
103 4 1 24.2209 38.7141 44.179 0 0 0
160 5 3 94.3159 58.8295 48.196 0 -1 -1
159 5 1 96.4009 56.4197 49.3852 0 -1 -1
6 1 2 26.5042 3.98648 59.3391 0 0 -1
5 1 1 25.1351 6.97919 59.4809 0 0 -1
1 1 1 27.6129 7.31462 53.5847 0 0 -1
3 1 1 26.0742 9.17177 56.5621 0 0 -1
4 1 3 26.7759 12.5175 56.7801 0 0 -1
88 3 3 22.3718 17.3898 57.7855 0 0 -1
92 3 3 29.8387 17.573 2.83323 0 0 0
96 3 3 33.5215 12.7979 59.3209 0 0 -1
72 3 3 19.4065 29.1262 52.7076 0 0 -1
76 3 3 19.0995 35.7968 57.7357 0 0 -1
75 3 1 22.1079 33.9589 57.0611 0 0 -1
73 3 1 23.8478 33.6164 53.8133 0 0 -1
31 1 1 38.1358 48.2533 54.8219 0 -1 -1
32 1 3 36.7868 49.7646 52.297 0 -1 -1
28 1 3 38.9449 55.5926 54.7029 0 -1 -1
27 1 1 40.1484 53.5621 57.4566 0 -1 -1
29 1 1 40.2377 49.6908 57.4196 0 -1 -1
144 5 3 78.7716 54.1938 4.47352 0 -1 0
147 5 1 83.0833 54.9605 57.844 0 -1 -1
148 5 3 83.2308 51.7627 59.2036 0 -1 -1
24 1 3 38.0462 0.606055 59.013 0 0 -1
138 5 2 69.0369 0.0832533 58.9259 0 0 -1
143 5 1 77.9418 56.2285 1.65774 0 -1 0
142 5 2 73.8268 58.368 57.5122 0 -1 -1
141 5 1 74.5002 57.0589 0.600598 0 -1 0
146 5 2 80.1546 0.170394 57.4924 0 0 -1
145 5 1 80.3434 57.1901 58.9459 0 -1 -1
149 5 1 85.8138 57.3375 58.2433 0 -1 -1
152 5 3 87.2471 55.4592 52.5611 0 -1 -1
151 5 1 88.1287 56.4089 55.7456 0 -1 -1
156 5 3 93.1543 0.374308 54.3601 0 0 -1
153 5 1 91.722 55.1957 56.5735 0 -1 -1
157 5 1 95.8059 54.7701 52.7646 0 -1 -1
155 5 1 94.0201 57.1694 55.0497 0 -1 -1
158 5 2 97.2416 51.9406 53.875 0 -1 -1
ITEM: TIMESTEP
15000
ITEM: NUMBER OF ATOMS
256
ITEM: BOX BOUNDS pp pp pp
0.0000000000000000e+00 1.2000000000000000e+02
0.0000000000000000e+00 6.0000000000000000e+01
0.0000000000000000e+00 6.0000000000000000e+01
ITEM: ATOMS id mol type x y z ix iy iz
15 1 1 30.3002 5.7282 8.95555 0 0 0
20 1 3 29.6387 0.571938 2.96416 0 0 0
12 1 3 26.9507 6.55853 2.88098 0 0 0
16 1 3 32.7863 7.27718 6.81317 0 0 0
141 5 1 76.3174 5.75033 4.62254 0 0 0
142 5 2 74.7455 5.11711 1.54653 0 0 0
143 5 1 79.981 4.29093 4.95635 0 0 0
148 5 3 85.8988 0.432352 4.78123 0 0 0
145 5 1 81.0675 2.99863 1.61901 0 0 0
11 1 1 26.1374 8.25713 5.67969 0 0 0
7 1 1 22.438 11.5387 2.2844 0 0 0
9 1 1 24.3914 11.355 5.29807 0 0 0
89 3 1 23.1707 12.2632 4.15448 0 0 0
90 3 2 20.4043 10.7061 3.17007 0 0 0
10 1 2 24.6807 14.0309 7.66652 0 0 0
91 3 1 26.6272 10.8706 4.17043 0 0 0
92 3 3 28.7125 12.0568 6.43446 0 0 0
134 5 2 66.4457 12.9438 5.34014 0 0 0
138 5 2 69.5034 8.36171 4.43409 0 0 0
133 5 1 68.3867 14.5799 7.33507 0 0 0
135 5 1 71.7357 13.2011 7.6918 0 0 0
137 5 1 71.9774 9.9928 5.95372 0 0 0
139 5 1 75.0437 8.25689 6.9769 0 0 0
144 5 3 81.7074 4.65806 7.92898 0 0 0
86 3 2 17.0479 15.4 3.3563 0 0 0
85 3 1 20.0807 17.2498 3.43723 0 0 0
87 3 1 23.0822 15.8553 4.58748 0 0 0
88 3 3 25.5702 18.0978 5.48849 0 0 0
129 5 1 63.495 18.0672 8.58332 0 0 0
131 5 1 67.2307 17.9599 8.66873 0 0 0
132 5 3 69.2551 19.8531 10.7609 0 0 0
81 3 1 20.8706 23.6912 2.38539 0 0 0
79 3 1 24.0955 25.2622 2.75865 0 0 0
78 3 2 26.7111 19.9255 1.39852 0 0 0
206 7 2 75.7101 25.4046 2.00558 0 0 0
80 3 3 23.9528 28.3895 3.72255 0 0 0
205 7 1 78.0253 27.9388 3.04174 0 0 0
207 7 1 77.7288 31.6874 2.88055 0 0 0
208 7 3 76.9104 33.6591 5.52225 0 0 0
209 7 1 80.5634 33.1137 1.14002 0 0 0
203 7 1 81.5952 27.3585 3.22261 0 0 0
204 7 3 83.9421 29.8355 2.66019 0 0 0
211 7 1 82.3009 36.1582 2.56456 0 0 0
214 7 2 83.2863 38.6643 56.755 0 0 -1
213 7 1 83.7383 38.6485 0.0891917 0 0 0
222 7 2 92.3757 41.2575 5.08272 0 0 0
215 7 1 87.0407 39.7123 1.31318 0 0 0
216 7 3 87.9017 40.497 4.67923 0 0 0
217 7 1 88.7119 41.9717 59.0846 0 0 -1
219 7 1 90.0517 44.9286 0.9043 0 0 0
221 7 1 90.2398 43.5142 4.31308 0 0 0
166 6 2 89.9666 45.2875 3.60388 0 -1 0
220 7 3 88.2424 47.7918 0.697567 0 0 0
163 6 1 89.3109 51.8613 3.82097 0 -1 0
165 6 1 90.3716 48.4376 5.05776 0 -1 0
19 1 1 31.276 1.07144 5.80695 0 0 0
21 1 1 35.0106 1.6224 6.24738 0 0 0
23 1 1 36.5207 2.49742 2.9993 0 0 0
25 1 1 38.08 59.7677 1.04845 0 -1 0
26 1 2 41.3439 58.889 1.59293 0 -1 0
164 6 3 87.6358 53.7419 5.85625 0 -1 0
156 5 3 92.5465 59.439 3.95137 0 -1 0
160 5 3 97.5556 55.977 6.84325 0 -1 0
17 1 1 29.3049 2.22222 8.70947 0 0 0
18 1 2 26.0867 2.79803 8.15646 0 0 0
63 2 1 21.4826 5.75693 8.8875 0 0 0
64 2 3 22.8488 8.57329 7.98174 0 0 0
13 1 1 27.2207 7.55739 9.09221 0 0 0
14 1 2 26.0186 9.236 11.5046 0 0 0
130 5 2 61.8289 15.816 6.69775 0 0 0
140 5 3 76.8949 9.26132 9.51414 0 0 0
136 5 3 73.9104 14.5943 9.98998 0 0 0
202 7 2 81.2346 22.3468 6.33073 0 0 0