ITEM: TIMESTEP
0
ITEM: NUMBER OF ATOMS
256
ITEM: BOX BOUNDS pp pp pp
0.0000000000000000e+00 1.2000000000000000e+02
0.0000000000000000e+00 6.0000000000000000e+01
0.0000000000000000e+00 6.0000000000000000e+01
ITEM: ATOMS id mol type x y z ix iy iz
1 1 1 0 1 0 0 0 0
2 1 2 0 4.4 0 0 0 0
5 1 1 6.4 1 0 0 0 0
6 1 2 6.4 4.4 0 0 0 0
9 1 1 12.8 1 0 0 0 0
10 1 2 12.8 4.4 0 0 0 0
13 1 1 19.2 1 0 0 0 0
14 1 2 19.2 4.4 0 0 0 0
17 1 1 25.6 1 0 0 0 0
18 1 2 25.6 4.4 0 0 0 0
21 1 1 32 1 0 0 0 0
22 1 3 32 4.4 0 0 0 0
25 1 1 38.4 1 0 0 0 0
26 1 2 38.4 4.4 0 0 0 0
29 1 1 44.8 1 0 0 0 0
30 1 3 44.8 4.4 0 0 0 0
129 5 1 60 1 0 0 0 0
130 5 2 60 4.4 0 0 0 0
133 5 1 66.4 1 0 0 0 0
134 5 2 66.4 4.4 0 0 0 0
137 5 1 72.8 1 0 0 0 0
138 5 2 72.8 4.4 0 0 0 0
141 5 1 79.2 1 0 0 0 0
142 5 2 79.2 4.4 0 0 0 0
145 5 1 85.6 1 0 0 0 0
146 5 2 85.6 4.4 0 0 0 0
149 5 1 92 1 0 0 0 0
150 5 3 92 4.4 0 0 0 0
153 5 1 98.4 1 0 0 0 0
154 5 2 98.4 4.4 0 0 0 0
157 5 1 104.8 1 0 0 0 0
158 5 3 104.8 4.4 0 0 0 0
68 3 2 3.2 25.6 5.38845e-16 0 0 0
72 3 3 9.6 25.6 5.38845e-16 0 0 0
76 3 2 16 25.6 5.38845e-16 0 0 0
80 3 3 22.4 25.6 5.38845e-16 0 0 0
84 3 3 28.8 25.6 5.38845e-16 0 0 0
88 3 3 35.2 25.6 5.38845e-16 0 0 0
92 3 3 41.6 25.6 5.38845e-16 0 0 0
96 3 3 48 25.6 5.38845e-16 0 0 0
196 7 2 63.2 25.6 5.38845e-16 0 0 0
200 7 3 69.6 25.6 5.38845e-16 0 0 0
204 7 2 76 25.6 5.38845e-16 0 0 0
208 7 3 82.4 25.6 5.38845e-16 0 0 0
212 7 3 88.8 25.6 5.38845e-16 0 0 0
216 7 3 95.2 25.6 5.38845e-16 0 0 0
220 7 3 101.6 25.6 5.38845e-16 0 0 0
224 7 3 108 25.6 5.38845e-16 0 0 0
65 3 1 0 31 0 0 0 0
67 3 1 3.2 29 1.22465e-16 0 0 0
69 3 1 6.4 31 0 0 0 0
71 3 1 9.6 29 1.22465e-16 0 0 0
73 3 1 12.8 31 0 0 0 0
75 3 1 16 29 1.22465e-16 0 0 0
77 3 1 19.2 31 0 0 0 0
79 3 1 22.4 29 1.22465e-16 0 0 0
81 3 1 25.6 31 0 0 0 0
83 3 1 28.8 29 1.22465e-16 0 0 0
85 3 1 32 31 0 0 0 0
87 3 1 35.2 29 1.22465e-16 0 0 0
89 3 1 38.4 31 0 0 0 0
91 3 1 41.6 29 1.22465e-16 0 0 0
93 3 1 44.8 31 0 0 0 0
95 3 1 48 29 1.22465e-16 0 0 0
193 7 1 60 31 0 0 0 0
195 7 1 63.2 29 1.22465e-16 0 0 0
197 7 1 66.4 31 0 0 0 0
199 7 1 69.6 29 1.22465e-16 0 0 0
201 7 1 72.8 31 0 0 0 0
203 7 1 76 29 1.22465e-16 0 0 0
205 7 1 79.2 31 0 0 0 0
207 7 1 82.4 29 1.22465e-16 0 0 0
209 7 1 85.6 31 0 0 0 0
211 7 1 88.8 29 1.22465e-16 0 0 0
213 7 1 92 31 0 0 0 0
215 7 1 95.2 29 1.22465e-16 0 0 0
217 7 1 98.4 31 0 0 0 0
219 7 1 101.6 29 1.22465e-16 0 0 0
221 7 1 104.8 31 0 0 0 0
223 7 1 108 29 1.22465e-16 0 0 0
66 3 2 0 34.4 0 0 0 0
70 3 2 6.4 34.4 0 0 0 0
74 3 2 12.8 34.4 0 0 0 0
78 3 2 19.2 34.4 0 0 0 0
82 3 2 25.6 34.4 0 0 0 0
86 3 3 32 34.4 0 0 0 0
90 3 2 38.4 34.4 0 0 0 0
94 3 3 44.8 34.4 0 0 0 0
194 7 2 60 34.4 0 0 0 0
198 7 2 66.4 34.4 0 0 0 0
202 7 2 72.8 34.4 0 0 0 0
206 7 2 79.2 34.4 0 0 0 0
210 7 2 85.6 34.4 0 0 0 0
214 7 3 92 34.4 0 0 0 0
218 7 2 98.4 34.4 0 0 0 0
222 7 3 104.8 34.4 0 0 0 0
3 1 1 3.2 59 1.22465e-16 0 -1 0
4 1 2 3.2 55.6 5.38845e-16 0 -1 0
7 1 1 9.6 59 1.22465e-16 0 -1 0
8 1 3 9.6 55.6 5.38845e-16 0 -1 0
11 1 1 16 59 1.22465e-16 0 -1 0
12 1 2 16 55.6 5.38845e-16 0 -1 0
15 1 1 22.4 59 1.22465e-16 0 -1 0
16 1 3 22.4 55.6 5.38845e-16 0 -1 0
19 1 1 28.8 59 1.22465e-16 0 -1 0
20 1 3 28.8 55.6 5.38845e-16 0 -1 0
23 1 1 35.2 59 1.22465e-16 0 -1 0
24 1 3 35.2 55.6 5.38845e-16 0 -1 0
27 1 1 41.6 59 1.22465e-16 0 -1 0
28 1 3 41.6 55.6 5.38845e-16 0 -1 0
31 1 1 48 59 1.22465e-16 0 -1 0
32 1 3 48 55.6 5.38845e-16 0 -1 0
131 5 1 63.2 59 1.22465e-16 0 -1 0
132 5 2 63.2 55.6 5.38845e-16 0 -1 0
135 5 1 69.6 59 1.22465e-16 0 -1 0
136 5 3 69.6 55.6 5.38845e-16 0 -1 0
139 5 1 76 59 1.22465e-16 0 -1 0
140 5 2 76 55.6 5.38845e-16 0 -1 0
143 5 1 82.4 59 1.22465e-16 0 -1 0
144 5 3 82.4 55.6 5.38845e-16 0 -1 0
147 5 1 88.8 59 1.22465e-16 0 -1 0
148 5 3 88.8 55.6 5.38845e-16 0 -1 0
151 5 1 95.2 59 1.22465e-16 0 -1 0
152 5 3 95.2 55.6 5.38845e-16 0 -1 0
155 5 1 101.6 59 1.22465e-16 0 -1 0
156 5 3 101.6 55.6 5.38845e-16 0 -1 0
159 5 1 108 59 1.22465e-16 0 -1 0
160 5 3 108 55.6 5.38845e-16 0 -1 0
33 2 1 0 1 30 0 0 0
34 2 2 0 4.4 30 0 0 0
37 2 1 6.4 1 30 0 0 0
38 2 2 6.4 4.4 30 0 0 0
41 2 1 12.8 1 30 0 0 0
42 2 2 12.8 4.4 30 0 0 0
45 2 1 19.2 1 30 0 0 0
46 2 2 19.2 4.4 30 0 0 0
49 2 1 25.6 1 30 0 0 0
50 2 2 25.6 4.4 30 0 0 0
53 2 1 32 1 30 0 0 0
54 2 3 32 4.4 30 0 0 0
57 2 1 38.4 1 30 0 0 0
58 2 2 38.4 4.4 30 0 0 0
61 2 1 44.8 1 30 0 0 0
62 2 3 44.8 4.4 30 0 0 0
161 6 1 60 1 30 0 0 0
162 6 2 60 4.4 30 0 0 0
165 6 1 66.4 1 30 0 0 0
166 6 2 66.4 4.4 30 0 0 0
169 6 1 72.8 1 30 0 0 0
170 6 2 72.8 4.4 30 0 0 0
173 6 1 79.2 1 30 0 0 0
174 6 2 79.2 4.4 30 0 0 0
177 6 1 85.6 1 30 0 0 0
178 6 2 85.6 4.4 30 0 0 0
181 6 1 92 1 30 0 0 0
182 6 3 92 4.4 30 0 0 0
185 6 1 98.4 1 30 0 0 0
186 6 2 98.4 4.4 30 0 0 0
189 6 1 104.8 1 30 0 0 0
190 6 3 104.8 4.4 30 0 0 0
100 4 2 3.2 25.6 30 0 0 0
104 4 3 9.6 25.6 30 0 0 0
108 4 2 16 25.6 30 0 0 0
112 4 3 22.4 25.6 30 0 0 0
116 4 3 28.8 25.6 30 0 0 0
120 4 3 35.2 25.6 30 0 0 0
124 4 3 41.6 25.6 30 0 0 0
128 4 3 48 25.6 30 0 0 0
228 8 2 63.2 25.6 30 0 0 0
232 8 3 69.6 25.6 30 0 0 0
236 8 2 76 25.6 30 0 0 0
240 8 3 82.4 25.6 30 0 0 0
244 8 3 88.8 25.6 30 0 0 0
248 8 3 95.2 25.6 30 0 0 0
252 8 3 101.6 25.6 30 0 0 0
256 8 3 108 25.6 30 0 0 0
97 4 1 0 31 30 0 0 0
99 4 1 3.2 29 30 0 0 0
101 4 1 6.4 31 30 0 0 0
103 4 1 9.6 29 30 0 0 0
105 4 1 12.8 31 30 0 0 0
107 4 1 16 29 30 0 0 0
109 4 1 19.2 31 30 0 0 0
111 4 1 22.4 29 30 0 0 0
113 4 1 25.6 31 30 0 0 0
115 4 1 28.8 29 30 0 0 0
117 4 1 32 31 30 0 0 0
119 4 1 35.2 29 30 0 0 0
121 4 1 38.4 31 30 0 0 0
123 4 1 41.6 29 30 0 0 0
125 4 1 44.8 31 30 0 0 0
127 4 1 48 29 30 0 0 0
225 8 1 60 31 30 0 0 0
227 8 1 63.2 29 30 0 0 0
229 8 1 66.4 31 30 0 0 0
231 8 1 69.6 29 30 0 0 0
233 8 1 72.8 31 30 0 0 0
235 8 1 76 29 30 0 0 0
237 8 1 79.2 31 30 0 0 0
239 8 1 82.4 29 30 0 0 0
241 8 1 85.6 31 30 0 0 0
243 8 1 88.8 29 30 0 0 0
245 8 1 92 31 30 0 0 0
247 8 1 95.2 29 30 0 0 0
249 8 1 98.4 31 30 0 0 0
251 8 1 101.6 29 30 0 0 0
253 8 1 104.8 31 30 0 0 0
255 8 1 108 29 30 0 0 0
98 4 2 0 34.4 30 0 0 0
102 4 2 6.4 34.4 30 0 0 0
106 4 2 12.8 34.4 30 0 0 0
110 4 2 19.2 34.4 30 0 0 0
114 4 2 25.6 34.4 30 0 0 0
118 4 3 32 34.4 30 0 0 0
122 4 2 38.4 34.4 30 0 0 0
126 4 3 44.8 34.4 30 0 0 0
226 8 2 60 34.4 30 0 0 0
230 8 2 66.4 34.4 30 0 0 0
234 8 2 72.8 34.4 30 0 0 0
238 8 2 79.2 34.4 30 0 0 0
242 8 2 85.6 34.4 30 0 0 0
246 8 3 92 34.4 30 0 0 0
250 8 2 98.4 34.4 30 0 0 0
254 8 3 104.8 34.4 30 0 0 0
35 2 1 3.2 59 30 0 -1 0
36 2 2 3.2 55.6 30 0 -1 0
39 2 1 9.6 59 30 0 -1 0
40 2 3 9.6 55.6 30 0 -1 0
43 2 1 16 59 30 0 -1 0
44 2 2 16 55.6 30 0 -1 0
47 2 1 22.4 59 30 0 -1 0
48 2 3 22.4 55.6 30 0 -1 0
51 2 1 28.8 59 30 0 -1 0
52 2 3 28.8 55.6 30 0 -1 0
55 2 1 35.2 59 30 0 -1 0
56 2 3 35.2 55.6 30 0 -1 0
59 2 1 41.6 59 30 0 -1 0
60 2 3 41.6 55.6 30 0 -1 0
63 2 1 48 59 30 0 -1 0
64 2 3 48 55.6 30 0 -1 0
163 6 1 63.2 59 30 0 -1 0
164 6 2 63.2 55.6 30 0 -1 0
167 6 1 69.6 59 30 0 -1 0
168 6 3 69.6 55.6 30 0 -1 0
171 6 1 76 59 30 0 -1 0
172 6 2 76 55.6 30 0 -1 0
175 6 1 82.4 59 30 0 -1 0
176 6 3 82.4 55.6 30 0 -1 0
179 6 1 88.8 59 30 0 -1 0
180 6 3 88.8 55.6 30 0 -1 0
183 6 1 95.2 59 30 0 -1 0
184 6 3 95.2 55.6 30 0 -1 0
187 6 1 101.6 59 30 0 -1 0
188 6 3 101.6 55.6 30 0 -1 0
191 6 1 108 59 30 0 -1 0
192 6 3 108 55.6 30 0 -1 0
ITEM: TIMESTEP
5000
ITEM: NUMBER OF ATOMS
256
ITEM: BOX BOUNDS pp pp pp
0.0000000000000000e+00 1.2000000000000000e+02
0.0000000000000000e+00 6.0000000000000000e+01
0.0000000000000000e+00 6.0000000000000000e+01
ITEM: ATOMS id mol type x y z ix iy iz
3 1 1 16.7259 6.60662 0.284895 0 0 0
5 1 1 17.9996 7.31987 3.70403 0 0 0
7 1 1 18.867 4.28022 5.58992 0 0 0
8 1 3 19.6957 1.77182 3.42069 0 0 0
9 1 1 20.7907 4.64375 8.74344 0 0 0
12 1 2 21.3229 58.8856 7.37676 0 -1 0
15 1 1 27.3534 1.13631 8.22482 0 0 0
154 5 2 89.8104 3.94973 6.56082 0 0 0
153 5 1 90.7404 0.914482 4.95474 0 0 0
158 5 3 92.5345 6.09746 58.6547 0 0 -1
157 5 1 92.2941 2.78044 59.3525 0 0 -1
6 1 2 18.0732 10.0864 5.33698 0 0 0
67 3 1 6.5204 27.341 6.88697 0 0 0
65 3 1 2.89869 27.4943 7.07431 0 0 0
68 3 2 8.27384 24.3961 7.26169 0 0 0
84 3 3 22.129 26.7223 4.34585 0 0 0
91 3 1 33.065 28.2071 58.2048 0 0 -1
196 7 2 70.253 18.967 3.94282 0 0 0
195 7 1 70.3712 20.1355 7.0064 0 0 0
200 7 3 72.602 23.7723 1.85175 0 0 0
199 7 1 73.532 24.9683 4.88492 0 0 0
66 3 2 1.18494 29.7294 5.16278 0 0 0
69 3 1 8.44694 30.3255 7.18994 0 0 0
71 3 1 12.0029 29.897 7.7047 0 0 0
70 3 2 7.16062 32.7994 5.37587 0 0 0
73 3 1 13.7998 32.7668 9.42545 0 0 0
81 3 1 24.2651 30.6055 8.84971 0 0 0
83 3 1 24.6867 28.0674 6.009 0 0 0
85 3 1 28.2416 27.1549 5.74539 0 0 0
87 3 1 29.2704 26.2414 2.36237 0 0 0
86 3 3 30.3478 29.4097 7.32541 0 0 0
89 3 1 32.5787 27.4797 1.70693 0 0 0
90 3 2 34.1896 29.1178 3.98445 0 0 0
94 3 3 36.3438 32.2383 1.23906 0 0 0
201 7 1 76.0582 27.7679 5.21474 0 0 0
203 7 1 78.2142 27.8262 2.43957 0 0 0
205 7 1 81.1284 30.2124 2.27429 0 0 0
206 7 2 81.3608 32.9721 3.99987 0 0 0
214 7 3 93.3482 33.1736 57.1827 0 0 -1
210 7 2 87.1469 34.2135 0.974946 0 0 0
213 7 1 92.6568 30.0903 58.5159 0 0 -1
74 3 2 13.6126 36.061 8.79806 0 0 0
82 3 2 26.8229 32.7059 9.83649 0 0 0
24 1 3 33.4907 51.1359 6.04556 0 -1 0
28 1 3 40.177 48.5092 4.42949 0 -1 0
27 1 1 41.5362 51.1157 6.30138 0 -1 0
16 1 3 25.5381 59.9856 5.48454 0 -1 0
19 1 1 32.4235 58.098 5.86612 0 -1 0
20 1 3 30.7555 57.1126 3.24383 0 -1 0
23 1 1 36.1087 53.26 6.2984 0 -1 0
29 1 1 44.3925 53.2057 5.82659 0 -1 0
31 1 1 46.1704 53.1489 2.52919 0 -1 0
140 5 2 73.7216 56.6306 0.514309 0 -1 0
151 5 1 88.5501 58.2449 3.81638 0 -1 0
155 5 1 93.3579 1.23249 2.51127 0 0 0
152 5 3 88.9525 54.987 4.55958 0 -1 0
13 1 1 25.2714 1.33724 11.3409 0 0 0
11 1 1 21.6968 1.29805 10.0011 0 0 0
17 1 1 30.8344 59.5633 8.8685 0 -1 0
18 1 2 32.092 58.8557 11.895 0 -1 0
10 1 2 21.2502 7.74872 10.3353 0 0 0
14 1 2 26.4595 3.53234 13.4534 0 0 0
72 3 3 13.6311 26.9451 8.08876 0 0 0
194 7 2 68.9505 19.6216 12.9587 0 0 0
193 7 1 68.0111 19.1224 9.54661 0 0 0
197 7 1 72.4923 23.0717 7.92376 0 0 0
76 3 2 15.3809 28.1285 12.2029 0 0 0
75 3 1 15.9758 31.3854 11.9776 0 0 0
80 3 3 19.6368 27.3041 10.9404 0 0 0
79 3 1 21.4088 30.1655 11.1343 0 0 0
198 7 2 72.5283 24.4193 10.9268 0 0 0
202 7 2 75.7298 30.3174 7.68025 0 0 0
77 3 1 19.2426 32.9056 11.863 0 0 0
78 3 2 19.8145 36.0864 10.7449 0 0 0
22 1 3 38.6521 58.6019 6.49931 0 -1 0
21 1 1 35.8084 56.9827 6.12151 0 -1 0
25 1 1 39.0654 52.6578 8.39927 0 -1 0
26 1 2 40.1839 54.809 10.8468 0 -1 0
30 1 3 44.5837 55.9385 7.93633 0 -1 0
156 5 3 95.1238 58.4726 1.97159 0 -1 0
38 2 2 12.856 3.25492 28.3677 0 0 0
62 2 3 39.648 3.21118 28.2353 0 0 0
61 2 1 40.6855 0.0923867 27.7455 0 0 0
162 6 2 77.3055 8.20057 22.8984 0 0 0
190 6 3 106.312 57.3004 28.2991 0 -1 0
166 6 2 83.1145 8.44305 23.6246 0 0 0
226 8 2 66.4144 30.4383 24.9516 0 0 0
225 8 1 68.2698 33.1619 24.5708 0 0 0
227 8 1 71.6848 33.4956 25.9341 0 0 0
228 8 2 74.4098 32.1665 24.4228 0 0 0
188 6 3 99.7562 51.5952 25.5666 0 -1 0
192 6 3 101.764 55.45 20.5507 0 -1 0
34 2 2 17.4897 54.3231 27.4198 0 -1 0
63 2 1 40.8744 58.4549 24.4398 0 -1 0
64 2 3 41.6103 55.1764 23.9173 0 -1 0
189 6 1 104.682 55.5662 26.1238 0 -1 0
191 6 1 104.105 56.6197 22.441 0 -1 0
187 6 1 101.918 53.4595 27.4586 0 -1 0
41 2 1 18.4409 1.74061 31.9814 0 0 0
42 2 2 17.796 5.24282 32.0518 0 0 0
57 2 1 40.5231 60.1162 33.5111 0 -1 0
58 2 2 39.6925 3.15012 32.497 0 0 0
161 6 1 77.5607 5.14896 24.3087 0 0 0
163 6 1 80.5249 3.33992 25.4474 0 0 0
164 6 2 80.8158 0.0527339 25.9684 0 0 0
167 6 1 85.511 5.49443 28.5637 0 0 0
168 6 3 85.422 2.60019 30.6134 0 0 0
177 6 1 94.0889 4.19072 32.8464 0 0 0
179 6 1 93.8205 0.683972 31.5919 0 0 0
182 6 3 99.6932 1.40787 30.6423 0 0 0
181 6 1 97.0933 59.3379 30.6919 0 -1 0
165 6 1 83.0977 5.78854 25.7577 0 0 0
169 6 1 86.0492 8.85668 29.9388 0 0 0
170 6 2 86.7875 11.3188 27.7511 0 0 0
174 6 2 92.5146 11.3358 34.7724 0 0 0
116 4 3 31.6853 22.8186 35.9401 0 0 0
128 4 3 35.5525 26.3256 27.3935 0 0 0
236 8 2 77.2107 26.411 34.919 0 0 0
240 8 3 81.5679 27.5072 33.9121 0 0 0
112 4 3 24.9179 25.6001 34.5832 0 0 0
109 4 1 25.1551 31.5132 35.316 0 0 0
111 4 1 26.8347 28.2596 35.3923 0 0 0
125 4 1 34.1612 30.3929 31.7326 0 0 0
127 4 1 33.1275 27.8967 29.2472 0 0 0
124 4 3 40.1446 30.0982 29.594 0 0 0
229 8 1 71.3131 33.3598 29.6032 0 0 0
230 8 2 68.6969 34.8229 31.4104 0 0 0
232 8 3 76.3315 29.7537 29.4675 0 0 0
231 8 1 73.3435 30.8694 31.299 0 0 0
244 8 3 88.2501 28.47 32.5523 0 0 0
243 8 1 88.0221 31.0266 35.2014 0 0 0
248 8 3 93.2375 32.3734 30.3337 0 0 0
247 8 1 92.4277 34.8148 32.4875 0 0 0
251 8 1 98.3037 35.0044 34.0626 0 0 0
252 8 3 100.17 33.5896 31.7609 0 0 0
249 8 1 95.0638 36.8956 33.9345 0 0 0
37 2 1 13.1727 -0.0956943 29.0683 0 0 0
33 2 1 14.5655 55.007 25.7443 0 -1 0
35 2 1 11.8879 57.3686 26.6064 0 -1 0
36 2 2 8.59336 56.5332 26.5226 0 -1 0
39 2 1 16.3829 58.958 30.7128 0 -1 0
40 2 3 16.9742 55.9197 31.6813 0 -1 0
43 2 1 21.5078 0.485328 33.4856 0 0 0
44 2 2 22.3779 56.9293 33.3427 0 -1 0
59 2 1 41.2073 57.9088 30.7205 0 -1 0
60 2 3 40.4853 54.4934 30.5174 0 -1 0
180 6 3 91.3665 58.4468 32.0677 0 -1 0
184 6 3 95.0152 53.493 29.5871 0 -1 0
183 6 1 97.2836 55.7445 30.8815 0 -1 0
186 6 2 103.056 57.6268 31.6239 0 -1 0
185 6 1 100.874 55.1826 30.3707 0 -1 0
45 2 1 23.6031 2.90164 35.4666 0 0 0
46 2 2 23.5547 6.36432 35.1292 0 0 0
49 2 1 29.812 1.58019 36.576 0 0 0
50 2 2 30.2423 3.42144 33.7399 0 0 0
51 2 1 31.8658 58.5218 36.1916 0 -1 0
54 2 3 34.536 1.87987 32.3325 0 0 0
53 2 1 34.8432 59.096 34.2476 0 -1 0
55 2 1 38.0818 58.4121 35.8546 0 -1 0
172 6 2 85.5126 7.23802 35.949 0 0 0
175 6 1 91.6507 4.93782 35.4008 0 0 0
176 6 3 89.1115 2.92441 36.4924 0 0 0
178 6 2 96.9153 6.09809 32.2129 0 0 0
171 6 1 87.1991 8.78411 33.5705 0 0 0
173 6 1 90.7726 8.41576 34.2444 0 0 0
120 4 3 37.579 24.8681 33.6513 0 0 0
119 4 1 37.7216 27.1307 36.1134 0 0 0
104 4 3 17.1485 27.559 37.8386 0 0 0
105 4 1 19.7784 33.0121 37.4469 0 0 0
103 4 1 16.885 31.0438 38.3908 0 0 0
107 4 1 21.5766 30.9961 34.9664 0 0 0
108 4 2 20.2124 28.2526 33.7102 0 0 0
113 4 1 29.7608 28.3476 37.8149 0 0 0
115 4 1 31.9834 25.2899 38.0537 0 0 0
114 4 2 31.4004 31.3823 38.7359 0 0 0
126 4 3 31.7231 31.0209 34.2055 0 0 0
117 4 1 35.2905 26.8959 38.9539 0 0 0
121 4 1 38.4192 30.8183 35.5768 0 0 0
122 4 2 37.5336 33.037 37.9743 0 0 0
123 4 1 37.7591 31.3539 31.8242 0 0 0
233 8 1 73.9264 31.4919 34.9739 0 0 0
235 8 1 76.1257 29.125 36.6325 0 0 0
238 8 2 78.8018 33.8489 39.5626 0 0 0
237 8 1 78.8937 30.8196 38.3121 0 0 0
239 8 1 81.8208 29.56 36.6025 0 0 0
241 8 1 84.8095 31.6745 36.9747 0 0 0
245 8 1 90.1316 33.9823 35.3897 0 0 0
256 8 3 97.7187 28.3736 34.2019 0 0 0
255 8 1 97.2919 30.1006 37.1459 0 0 0
106 4 2 19.821 36.5779 37.4788 0 0 0
110 4 2 26.582 34.2665 36.8852 0 0 0
234 8 2 72.3195 34.0441 36.3941 0 0 0
242 8 2 84.624 34.2215 39.3529 0 0 0
246 8 3 90.6385 35.5623 38.4303 0 0 0
250 8 2 94.2282 39.1744 36.3539 0 0 0
253 8 1 98.5417 33.5993 37.5226 0 0 0
254 8 3 98.5503 35.4461 40.2973 0 0 0
47 2 1 26.2383 1.01365 37.5054 0 0 0
48 2 3 25.7097 58.4937 39.862 0 -1 0
52 2 3 31.1971 55.9054 37.9528 0 -1 0
56 2 3 38.5104 55.3196 37.2222 0 -1 0
100 4 2 11.6501 27.2883 39.8707 0 0 0
97 4 1 8.87298 32.5614 42.1311 0 0 0
101 4 1 14.6384 32.4815 40.7756 0 0 0
99 4 1 11.8501 30.3205 41.5304 0 0 0
118 4 3 35.3011 29.6743 40.8878 0 0 0
102 4 2 15.4065 35.3037 42.8527 0 0 0
224 7 3 103.437 31.155 47.8308 0 0 -1
98 4 2 8.68243 34.686 44.7287 0 0 0
223 7 1 101.844 33.4051 49.7853 0 0 -1
1 1 1 15.2427 9.42265 58.4667 0 0 -1
2 1 2 13.3806 11.6272 0.00997556 0 0 0
4 1 2 18.2265 4.16749 58.4336 0 0 -1
138 5 2 69.492 0.13221 52.9945 0 0 -1
141 5 1 76.6831 58.9285 55.3509 0 -1 -1
142 5 2 76.5584 0.318557 52.2326 0 0 -1
146 5 2 83.251 0.50826 54.5115 0 0 -1
150 5 3 87.1471 2.86005 59.9422 0 0 -1
88 3 3 27.4772 24.5024 0.197557 0 0 0
92 3 3 32.0911 26.2088 55.7639 0 0 -1
96 3 3 36.8415 29.5302 52.2453 0 0 -1
208 7 3 82.5777 26.6666 57.7083 0 0 -1
212 7 3 88.8349 25.4997 59.8529 0 0 -1
216 7 3 95.2081 24.7944 57.517 0 0 -1
215 7 1 95.5808 27.9095 58.68 0 0 -1
220 7 3 99.3681 26.8485 52.7521 0 0 -1
95 3 1 36.8593 31.7194 54.9037 0 0 -1
93 3 1 35.1215 31.1211 58.1653 0 0 -1
204 7 2 78.8648 25.0745 0.33661 0 0 0
209 7 1 86.6334 31.1473 59.6049 0 0 -1
207 7 1 83.1962 29.3997 59.3786 0 0 -1
211 7 1 89.241 28.6711 58.8415 0 0 -1
217 7 1 98.2816 30.2904 57.6798 0 0 -1
218 7 2 97.8398 33.427 58.9836 0 0 -1
221 7 1 100.91 33.2403 53.2635 0 0 -1
219 7 1 99.492 29.914 54.2556 0 0 -1
222 7 3 100.072 36.0326 55.0878 0 0 -1
32 1 3 45.3669 50.9361 0.208669 0 -1 0
130 5 2 59.0325 52.2159 53.6613 0 -1 -1
129 5 1 61.5351 50.979 55.5481 0 -1 -1
131 5 1 63.4656 53.1383 57.7649 0 -1 -1
132 5 2 65.1124 52.445 0.651876 0 -1 0
134 5 2 64.8809 56.0691 52.3045 0 -1 -1
133 5 1 64.8788 55.8491 55.9405 0 -1 -1
137 5 1 70.2536 59.0386 56.2796 0 -1 -1
135 5 1 67.8313 57.2907 58.0002 0 -1 -1
136 5 3 68.9568 55.7245 0.895626 0 -1 0
139 5 1 73.6726 58.3201 57.4873 0 -1 -1
143 5 1 79.1145 56.3656 56.418 0 -1 -1
144 5 3 78.1666 54.0946 58.6043 0 -1 -1
145 5 1 82.65 57.6597 56.2893 0 -1 -1
148 5 3 84.3708 53.6402 0.400878 0 -1 0
147 5 1 84.8025 56.7788 59.0387 0 -1 -1
149 5 1 86.541 59.5645 0.944155 0 -1 0
159 5 1 90.2034 0.622089 57.3636 0 0 -1
160 5 3 90.3637 57.2466 57.8423 0 -1 -1
ITEM: TIMESTEP
10000
ITEM: NUMBER OF ATOMS
256
ITEM: BOX BOUNDS pp pp pp
0.0000000000000000e+00 1.2000000000000000e+02
0.0000000000000000e+00 6.0000000000000000e+01
0.0000000000000000e+00 6.0000000000000000e+01
ITEM: ATOMS id mol type x y z ix iy iz
147 5 1 80.2119 59.8428 1.51248 0 -1 0
148 5 3 79.3136 1.13375 4.6109 0 0 0
152 5 3 86.3344 0.617309 1.38891 0 0 0
4 1 2 17.172 11.4794 4.23949 0 0 0
3 1 1 18.9961 14.2782 4.44591 0 0 0
5 1 1 20.7135 14.7098 7.63878 0 0 0
6 1 2 19.744 17.0401 9.76034 0 0 0
196 7 2 87.6321 24.5303 3.3305 0 0 0
84 3 3 23.4149 18.9656 6.42606 0 0 0
85 3 1 27.4886 23.5991 7.62629 0 0 0
88 3 3 25.8667 23.7316 1.35687 0 0 0
87 3 1 28.462 23.9776 3.95808 0 0 0
200 7 3 82.9514 27.0836 1.39161 0 0 0
89 3 1 31.7618 25.5367 3.3195 0 0 0
90 3 2 34.3313 25.2635 5.56773 0 0 0
94 3 3 36.9109 28.3116 3.7807 0 0 0
93 3 1 35.4285 29.5366 0.896567 0 0 0
204 7 2 79.0828 32.8372 0.887354 0 0 0
203 7 1 80.2016 32.2375 4.16545 0 0 0
205 7 1 83.4109 33.5075 4.89587 0 0 0
207 7 1 85.2179 34.2575 2.01674 0 0 0
208 7 3 83.2777 34.0146 59.3194 0 0 -1
209 7 1 88.8124 35.4164 2.03737 0 0 0
129 5 1 75.8011 37.3865 4.14054 0 -1 0
130 5 2 73.1127 35.3658 4.57188 0 -1 0
210 7 2 89.6205 37.6869 4.47902 0 0 0
214 7 3 94.3558 39.0592 2.58703 0 0 0
131 5 1 75.8588 40.5764 2.35086 0 -1 0
133 5 1 73.7562 43.3769 3.86013 0 -1 0
132 5 2 77.4172 41.1064 59.3888 0 -1 -1
138 5 2 69.3174 47.694 59.1384 0 -1 -1
135 5 1 74.3885 46.7365 2.63664 0 -1 0
137 5 1 71.1159 48.3116 2.13255 0 -1 0
139 5 1 71.2824 51.8494 3.32884 0 -1 0
136 5 3 76.9122 48.8417 3.2014 0 -1 0
140 5 2 71.3573 52.7106 6.64951 0 -1 0
141 5 1 72.4205 54.3951 0.577168 0 -1 0
145 5 1 77.9246 57.4402 0.0537871 0 -1 0
143 5 1 75.499 55.7287 2.16319 0 -1 0
144 5 3 75.8225 55.5646 5.48704 0 -1 0
160 5 3 81.9036 55.3615 1.24026 0 -1 0
12 1 2 23.5244 4.92085 9.83426 0 0 0
13 1 1 29.3086 6.39457 9.34363 0 0 0
15 1 1 29.745 3.129 10.8761 0 0 0
17 1 1 31.6972 0.766799 8.59031 0 0 0
18 1 2 32.0452 0.880187 4.97534 0 0 0
8 1 3 19.4541 8.81473 7.09556 0 0 0
7 1 1 21.4116 11.3099 8.56539 0 0 0
11 1 1 25.7979 7.28112 8.92827 0 0 0
9 1 1 24.9467 10.9381 8.79415 0 0 0
10 1 2 26.9112 13.4584 7.99949 0 0 0
14 1 2 31.6184 7.88834 7.41962 0 0 0
195 7 1 86.2823 23.3445 6.20812 0 0 0
193 7 1 86.8973 20.0857 7.97707 0 0 0
194 7 2 86.2032 19.6515 11.3793 0 0 0
80 3 3 18.0037 20.9156 9.40224 0 0 0
79 3 1 19.7631 22.8416 11.8132 0 0 0
83 3 1 24.4015 21.7059 8.21683 0 0 0
199 7 1 81.615 26.6744 4.44559 0 0 0
197 7 1 82.6623 24.2121 6.86915 0 0 0
198 7 2 80.329 23.5199 9.41967 0 0 0
66 3 2 0.90929 28.1334 17.1691 0 0 0
81 3 1 23.3488 22.7614 11.556 0 0 0
82 3 2 25.1857 25.2985 13.0208 0 0 0
86 3 3 29.431 25.0606 10.0775 0 0 0
201 7 1 79.6192 29.2351 6.13726 0 0 0
202 7 2 78.3739 29.1388 9.36084 0 0 0
206 7 2 85.1435 34.2112 7.74227 0 0 0
31 1 1 40.8448 45.1054 14.1046 0 -1 0
24 1 3 31.5586 50.3614 12.8274 0 -1 0
26 1 2 36.5078 51.0884 5.14263 0 -1 0
23 1 1 33.2077 51.5384 10.0043 0 -1 0
25 1 1 35.0111 49.1113 7.69632 0 -1 0
28 1 3 34.7496 44.2249 11.6691 0 -1 0
27 1 1 36.6312 46.4795 9.81871 0 -1 0
30 1 3 40.7331 50.6304 10.7997 0 -1 0
29 1 1 39.8372 47.583 11.416 0 -1 0
20 1 3 31.2315 57.3301 13.6778 0 -1 0
19 1 1 31.8097 57.5502 10.4296 0 -1 0
22 1 3 33.938 55.1487 4.6497 0 -1 0
21 1 1 33.0979 54.7977 8.09782 0 -1 0
16 1 3 27.5198 2.49837 13.333 0 0 0
76 3 2 14.4698 19.7223 12.934 0 0 0
68 3 2 5.08649 20.1841 14.7362 0 0 0
67 3 1 4.30932 22.7094 16.699 0 0 0
72 3 3 8.68363 18.8587 16.7502 0 0 0
71 3 1 9.55376 21.5174 18.4361 0 0 0
69 3 1 7.22884 24.4057 18.22 0 0 0
73 3 1 13.1315 22.6437 18.4483 0 0 0
75 3 1 14.944 22.3717 15.1677 0 0 0
77 3 1 18.397 23.9148 15.1678 0 0 0
65 3 1 1.17765 24.8242 15.9261 0 0 0
78 3 2 19.705 26.1889 17.3585 0 0 0
74 3 2 13.5135 25.2385 20.5202 0 0 0
32 1 3 40.6406 41.6206 13.527 0 -1 0
163 6 1 84.2562 59.4958 24.1064 0 -1 0
165 6 1 87.6466 0.783481 24.2882 0 0 0
166 6 2 90.1415 58.8813 25.4635 0 -1 0
167 6 1 87.2896 4.16303 25.1268 0 0 0
170 6 2 92.9161 4.91708 23.5287 0 0 0
169 6 1 89.9611 6.33563 24.6098 0 0 0
70 3 2 6.92801 27.3412 20.1238 0 0 0
228 8 2 73.4605 25.3305 26.8722 0 0 0
36 2 2 32.5776 40.9691 29.9921 0 -1 0
38 2 2 28.1874 46.3587 24.6466 0 -1 0
191 6 1 89.2763 49.6842 22.4061 0 -1 0
189 6 1 91.5539 52.6842 23.7772 0 -1 0
162 6 2 86.6874 55.236 20.738 0 -1 0
161 6 1 83.9261 56.4347 22.3293 0 -1 0
188 6 3 86.626 55.9682 25.6133 0 -1 0
192 6 3 86.422 50.4611 20.6136 0 -1 0
46 2 2 32.6728 57.512 30.2776 0 -1 0
164 6 2 81.4134 0.928777 25.5534 0 0 0
184 6 3 88.0441 0.952322 29.3445 0 0 0
181 6 1 93.5017 1.10443 31.8728 0 0 0
183 6 1 90.9305 59.3531 29.9278 0 -1 0
179 6 1 94.1171 4.41959 31.0834 0 0 0
168 6 3 84.4946 5.3801 26.3055 0 0 0
172 6 2 85.6687 9.46131 27.6742 0 0 0
171 6 1 88.7758 9.39107 26.1774 0 0 0
173 6 1 91.1725 10.8468 28.8137 0 0 0
180 6 3 93.9472 5.62701 28.0346 0 0 0
176 6 3 87.325 7.85161 31.865 0 0 0
174 6 2 94.2308 11.3372 27.7302 0 0 0
100 4 2 17.083 31.112 30.393 0 0 0
121 4 1 28.4926 31.3678 32.0861 0 0 0
226 8 2 67.5338 29.2943 32.8953 0 0 0
227 8 1 72.4061 27.3679 29.2191 0 0 0
225 8 1 68.8649 27.895 29.9574 0 0 0
229 8 1 74.4952 27.768 32.5517 0 0 0
230 8 2 73.3377 26.9555 35.9811 0 0 0
232 8 3 80.1214 26.4699 30.3155 0 0 0
231 8 1 78.1646 28.4448 32.3312 0 0 0
236 8 2 84.8825 30.591 32.9308 0 0 0
240 8 3 88.5529 34.3372 33.6616 0 0 0
122 4 2 25.2511 32.4895 31.5604 0 0 0
244 8 3 92.9585 38.9646 34.8842 0 0 0
33 2 1 27.9423 43.8756 33.0604 0 -1 0
35 2 1 29.795 43.1973 29.8945 0 -1 0
34 2 2 27.4144 47.1489 34.2639 0 -1 0
37 2 1 29.5498 46.2616 27.8616 0 -1 0
39 2 1 30.8015 49.3399 29.4308 0 -1 0
40 2 3 31.4124 49.5989 32.9401 0 -1 0
57 2 1 41.8737 51.9557 33.0026 0 -1 0
59 2 1 45.0399 51.1415 34.5901 0 -1 0
62 2 3 48.3068 54.6122 30.6892 0 -1 0
61 2 1 47.8124 51.6498 32.1478 0 -1 0
63 2 1 50.9231 49.5167 33.0059 0 -1 0
190 6 3 94.995 52.0418 23.6667 0 -1 0
41 2 1 30.2407 52.3597 27.4527 0 -1 0
43 2 1 27.7646 53.6708 29.6127 0 -1 0
42 2 2 29.9277 52.6192 24.0273 0 -1 0
50 2 2 33.69 0.694323 34.2991 0 0 0
54 2 3 37.2135 58.1884 32.3298 0 -1 0
58 2 2 41.5552 51.668 29.6351 0 -1 0
187 6 1 89.7884 55.7965 24.7808 0 -1 0
185 6 1 92.0767 57.3223 27.227 0 -1 0
186 6 2 94.8103 55.8674 27.4613 0 -1 0
182 6 3 96.0425 59.3005 32.9255 0 -1 0
178 6 2 94.6322 8.40179 36.1207 0 0 0
177 6 1 92.903 7.03936 33.5926 0 0 0
175 6 1 90.3262 9.13573 31.8121 0 0 0
128 4 3 25.5901 27.2749 40.4143 0 0 0
98 4 2 9.3174 31.9446 35.3817 0 0 0
99 4 1 14.8985 32.1571 32.8173 0 0 0
104 4 3 22.1275 30.6087 35.3193 0 0 0
101 4 1 16.2707 33.2563 36.1989 0 0 0
103 4 1 19.9798 33.2719 36.4667 0 0 0
107 4 1 24.4219 33.7203 40.3065 0 0 0
108 4 2 25.793 31.0506 38.7612 0 0 0
127 4 1 26.2828 30.3785 40.6474 0 0 0
124 4 3 30.1356 26.9539 35.8167 0 0 0
123 4 1 29.3406 30.2599 35.334 0 0 0
125 4 1 27.3917 32.2265 37.6448 0 0 0
120 4 3 34.181 31.5151 30.3306 0 0 0
116 4 3 35.4057 32.7225 36.6061 0 0 0
115 4 1 33.2222 35.5723 36.1279 0 0 0
119 4 1 31.4286 33.3586 31.1659 0 0 0
233 8 1 78.9522 31.2363 34.7432 0 0 0
234 8 2 76.535 32.311 36.7944 0 0 0
235 8 1 82.2267 32.5319 34.0195 0 0 0
97 4 1 11.5676 30.5966 33.1571 0 0 0
126 4 3 27.0244 35.6211 37.4386 0 0 0
117 4 1 31.5326 36.5167 33.022 0 0 0
118 4 3 29.2941 38.9452 32.2969 0 0 0
239 8 1 86.5071 36.2929 35.7145 0 0 0
237 8 1 82.7583 35.8465 35.6489 0 0 0
238 8 2 80.7873 36.8704 38.1312 0 0 0
242 8 2 86.463 39.3708 41.0843 0 0 0
243 8 1 91.545 39.3474 37.8947 0 0 0
256 8 3 84.3561 34.8932 40.5957 0 0 0
241 8 1 88.0339 38.596 38.1569 0 0 0
252 8 3 90.622 34.5627 39.8339 0 0 0
248 8 3 97.1203 37.0063 39.539 0 0 0
245 8 1 92.6961 40.339 41.2637 0 0 0
246 8 3 90.1502 41.0038 43.1652 0 0 0
247 8 1 95.5563 38.3938 42.206 0 0 0
44 2 2 26.0617 52.0798 32.1334 0 -1 0
52 2 3 33.2201 52.8154 38.4742 0 -1 0
55 2 1 39.2654 52.7924 35.4316 0 -1 0
56 2 3 39.0764 50.3051 38.0073 0 -1 0
64 2 3 50.9532 46.7585 35.2116 0 -1 0
60 2 3 45.4129 49.2764 37.5454 0 -1 0
45 2 1 29.3783 56.7307 31.1065 0 -1 0
48 2 3 27.0943 54.4008 36.0116 0 -1 0
49 2 1 31.9696 58.3202 36.1128 0 -1 0
47 2 1 28.9538 56.8735 34.6139 0 -1 0
51 2 1 34.3128 55.6382 37.3072 0 -1 0
53 2 1 37.3062 55.7846 35.0468 0 -1 0
102 4 2 14.5799 34.4021 38.9727 0 0 0
105 4 1 21.2954 35.4236 39.119 0 0 0
106 4 2 19.4754 36.845 41.63 0 0 0
112 4 3 30.6875 31.2604 41.1373 0 0 0
111 4 1 29.728 34.5594 41.1419 0 0 0
109 4 1 26.6295 35.7377 42.2053 0 0 0
110 4 2 26.3002 39.171 42.3138 0 0 0
113 4 1 30.8213 36.9347 38.6664 0 0 0
114 4 2 28.9091 39.294 36.7451 0 0 0
255 8 1 84.7424 35.3201 43.8089 0 0 0
253 8 1 88.135 36.1815 45.2117 0 0 0
249 8 1 94.2964 36.0924 44.7998 0 0 0
251 8 1 90.8318 35.3166 42.9969 0 0 0
250 8 2 93.4379 37.5312 47.7021 0 0 0
223 7 1 85.3079 36.0247 56.0833 0 0 -1
254 8 3 88.9989 36.5024 48.8444 0 0 0
224 7 3 83.9307 35.5009 53.2052 0 0 -1
216 7 3 93.8601 39.1935 53.541 0 0 -1
220 7 3 87.0742 41.5807 52.0302 0 0 -1
150 5 3 80.0135 1.09425 55.3519 0 0 -1
151 5 1 84.9149 1.30143 58.4069 0 0 -1
149 5 1 81.3527 1.5562 58.47 0 0 -1
154 5 2 83.5197 0.941733 52.7664 0 0 -1
153 5 1 85.5586 59.8136 55.2424 0 -1 -1
1 1 1 18.8828 16.8924 1.8713 0 0 0
2 1 2 20.7358 19.9056 2.38659 0 0 0
92 3 3 29.7419 28.8097 58.4776 0 0 -1
91 3 1 32.2747 27.705 0.405627 0 0 0
96 3 3 35.5918 32.1385 55.4567 0 0 -1
95 3 1 37.1613 30.1959 57.684 0 0 -1
212 7 3 90.3534 33.8079 55.9348 0 0 -1
211 7 1 90.6464 35.5785 58.8945 0 0 -1
213 7 1 93.1294 38.2147 59.4828 0 0 -1
222 7 3 86.9504 39.2225 1.07933 0 0 0
221 7 1 85.7919 39.2234 57.7221 0 0 -1
215 7 1 93.1655 40.2767 56.5467 0 0 -1
217 7 1 90.7457 42.8837 57.166 0 0 -1
134 5 2 71.002 42.9269 5.83801 0 -1 0
219 7 1 87.5818 41.7982 55.3945 0 0 -1
218 7 2 90.6928 44.8083 0.0468086 0 0 0
142 5 2 72.571 53.4746 57.3139 0 -1 -1
146 5 2 78.1498 56.8354 56.8946 0 -1 -1
158 5 3 80.1603 54.8388 52.744 0 -1 -1
157 5 1 82.1306 54.6575 55.3146 0 -1 -1
159 5 1 80.5847 53.9931 58.5002 0 -1 -1
155 5 1 85.4294 56.1889 55.4936 0 -1 -1
156 5 3 87.7175 54.7019 57.4352 0 -1 -1
ITEM: TIMESTEP
15000
ITEM: NUMBER OF ATOMS
256
ITEM: BOX BOUNDS pp pp pp
0.0000000000000000e+00 1.2000000000000000e+02
0.0000000000000000e+00 6.0000000000000000e+01
0.0000000000000000e+00 6.0000000000000000e+01
ITEM: ATOMS id mol type x y z ix iy iz
20 1 3 22.7184 5.40409 4.65706 0 0 0
22 1 3 31.2834 7.07734 2.36143 0 0 0
21 1 1 28.4797 5.4934 1.96847 0 0 0
19 1 1 25.5423 7.04542 3.59785 0 0 0
96 3 3 20.0701 12.9601 4.42653 0 0 0
18 1 2 29.8342 10.9009 4.16472 0 0 0
17 1 1 26.8851 9.91437 5.31948 0 0 0
88 3 3 28.0715 13.6876 7.03009 0 0 0
4 1 2 19.0296 14.3416 9.09458 0 0 0
3 1 1 21.2948 16.2743 6.90652 0 0 0
1 1 1 24.0768 14.7138 5.21743 0 0 0
95 3 1 21.9713 14.9459 2.482 0 0 0
93 3 1 25.2269 17.1684 2.76378 0 0 0
89 3 1 30.7611 18.0919 3.72002 0 0 0
91 3 1 28.4593 16.4621 1.17698 0 0 0
2 1 2 24.1823 13.1412 2.09059 0 0 0
94 3 3 24.7809 19.5302 4.81222 0 0 0
90 3 2 32.7413 20.7137 3.10008 0 0 0
194 7 2 76.5632 23.4286 54.8949 0 0 -1
198 7 2 80.8015 25.9155 1.19274 0 0 0
197 7 1 81.2239 28.0832 58.6346 0 0 -1
199 7 1 83.3277 31.0235 59.3895 0 0 -1
201 7 1 83.2477 32.4029 2.84288 0 0 0
203 7 1 85.5019 35.2476 2.05276 0 0 0
204 7 2 88.2616 36.1022 3.98727 0 0 0
135 5 1 80.9686 43.198 59.9446 0 -1 -1
132 5 2 86.4432 44.4611 2.34124 0 -1 0
136 5 3 82.155 46.3397 0.894335 0 -1 0
28 1 3 29.3763 55.0591 3.55741 0 -1 0
144 5 3 77.3864 51.2444 0.407082 0 -1 0
24 1 3 25.191 0.0431838 1.75125 0 0 0
25 1 1 31.7331 0.566376 2.85729 0 0 0
23 1 1 28.3099 1.73998 2.1076 0 0 0
27 1 1 31.9311 56.9583 3.94608 0 -1 0
30 1 3 38.0441 57.198 4.03834 0 -1 0
29 1 1 35.1371 55.5503 3.27336 0 -1 0
31 1 1 34.8886 52.1517 1.66635 0 -1 0
16 1 3 23.3486 9.07008 10.0439 0 0 0
12 1 2 24.5683 13.9969 14.9151 0 0 0
15 1 1 26.2458 10.3451 8.85443 0 0 0
14 1 2 32.1638 12.3539 9.6566 0 0 0
13 1 1 28.8509 12.1201 10.969 0 0 0
67 3 1 5.07967 12.5955 12.5545 0 0 0
68 3 2 5.3371 12.4031 9.31493 0 0 0
72 3 3 9.96129 16.0218 9.65467 0 0 0
71 3 1 8.92123 17.095 12.6331 0 0 0
80 3 3 17.895 18.587 7.1153 0 0 0
76 3 2 14.6377 17.3492 10.2477 0 0 0
75 3 1 14.1994 19.7052 12.35 0 0 0
11 1 1 27.1594 14.9321 12.8047 0 0 0
84 3 3 22.9239 15.7662 10.7555 0 0 0
9 1 1 27.119 18.0379 10.9041 0 0 0
7 1 1 24.0694 19.7326 11.4768 0 0 0
83 3 1 24.2275 18.4822 9.2144 0 0 0
87 3 1 29.3032 16.7866 6.88306 0 0 0
85 3 1 27.9152 19.2385 9.00176 0 0 0
10 1 2 27.2784 17.6591 7.574 0 0 0
73 3 1 11.1746 19.3321 14.8817 0 0 0
79 3 1 18.7578 21.2603 9.06696 0 0 0
77 3 1 16.715 22.6742 12.0498 0 0 0
5 1 1 22.6062 19.4734 8.23941 0 0 0
81 3 1 22.3212 21.8077 9.4742 0 0 0
6 1 2 22.2751 22.762 6.70364 0 0 0
82 3 2 23.7801 24.8413 9.83543 0 0 0
86 3 3 28.9813 22.3818 9.8227 0 0 0
202 7 2 80.4613 33.0962 4.66175 0 0 0
32 1 3 32.2494 50.0327 0.728318 0 -1 0
166 6 2 90.1678 57.3382 16.9555 0 -1 0
170 6 2 92.62 1.84513 16.0118 0 0 0
169 6 1 92.0984 3.52912 18.8658 0 0 0
165 6 1 88.7688 58.7201 19.7496 0 -1 0
65 3 1 4.26866 9.63342 14.6423 0 0 0
66 3 2 4.26804 9.81069 18.0079 0 0 0