ITEM: TIMESTEP
0
ITEM: NUMBER OF ATOMS
256
ITEM: BOX BOUNDS pp pp pp
0.0000000000000000e+00 1.2000000000000000e+02
0.0000000000000000e+00 6.0000000000000000e+01
0.0000000000000000e+00 6.0000000000000000e+01
ITEM: ATOMS id mol type x y z ix iy iz
1 1 1 0 1 0 0 0 0
2 1 2 0 4.4 0 0 0 0
5 1 1 6.4 1 0 0 0 0
6 1 2 6.4 4.4 0 0 0 0
9 1 1 12.8 1 0 0 0 0
10 1 3 12.8 4.4 0 0 0 0
13 1 1 19.2 1 0 0 0 0
14 1 3 19.2 4.4 0 0 0 0
17 1 1 25.6 1 0 0 0 0
18 1 2 25.6 4.4 0 0 0 0
21 1 1 32 1 0 0 0 0
22 1 2 32 4.4 0 0 0 0
25 1 1 38.4 1 0 0 0 0
26 1 3 38.4 4.4 0 0 0 0
29 1 1 44.8 1 0 0 0 0
30 1 3 44.8 4.4 0 0 0 0
129 5 1 60 1 0 0 0 0
130 5 2 60 4.4 0 0 0 0
133 5 1 66.4 1 0 0 0 0
134 5 2 66.4 4.4 0 0 0 0
137 5 1 72.8 1 0 0 0 0
138 5 3 72.8 4.4 0 0 0 0
141 5 1 79.2 1 0 0 0 0
142 5 3 79.2 4.4 0 0 0 0
145 5 1 85.6 1 0 0 0 0
146 5 2 85.6 4.4 0 0 0 0
149 5 1 92 1 0 0 0 0
150 5 2 92 4.4 0 0 0 0
153 5 1 98.4 1 0 0 0 0
154 5 3 98.4 4.4 0 0 0 0
157 5 1 104.8 1 0 0 0 0
158 5 3 104.8 4.4 0 0 0 0
68 3 2 3.2 25.6 5.38845e-16 0 0 0
72 3 2 9.6 25.6 5.38845e-16 0 0 0
76 3 3 16 25.6 5.38845e-16 0 0 0
80 3 3 22.4 25.6 5.38845e-16 0 0 0
84 3 2 28.8 25.6 5.38845e-16 0 0 0
88 3 2 35.2 25.6 5.38845e-16 0 0 0
92 3 3 41.6 25.6 5.38845e-16 0 0 0
96 3 3 48 25.6 5.38845e-16 0 0 0
196 7 2 63.2 25.6 5.38845e-16 0 0 0
200 7 2 69.6 25.6 5.38845e-16 0 0 0
204 7 3 76 25.6 5.38845e-16 0 0 0
208 7 3 82.4 25.6 5.38845e-16 0 0 0
212 7 2 88.8 25.6 5.38845e-16 0 0 0
216 7 2 95.2 25.6 5.38845e-16 0 0 0
220 7 3 101.6 25.6 5.38845e-16 0 0 0
224 7 3 108 25.6 5.38845e-16 0 0 0
65 3 1 0 31 0 0 0 0
67 3 1 3.2 29 1.22465e-16 0 0 0
69 3 1 6.4 31 0 0 0 0
71 3 1 9.6 29 1.22465e-16 0 0 0
73 3 1 12.8 31 0 0 0 0
75 3 1 16 29 1.22465e-16 0 0 0
77 3 1 19.2 31 0 0 0 0
79 3 1 22.4 29 1.22465e-16 0 0 0
81 3 1 25.6 31 0 0 0 0
83 3 1 28.8 29 1.22465e-16 0 0 0
85 3 1 32 31 0 0 0 0
87 3 1 35.2 29 1.22465e-16 0 0 0
89 3 1 38.4 31 0 0 0 0
91 3 1 41.6 29 1.22465e-16 0 0 0
93 3 1 44.8 31 0 0 0 0
95 3 1 48 29 1.22465e-16 0 0 0
193 7 1 60 31 0 0 0 0
195 7 1 63.2 29 1.22465e-16 0 0 0
197 7 1 66.4 31 0 0 0 0
199 7 1 69.6 29 1.22465e-16 0 0 0
201 7 1 72.8 31 0 0 0 0
203 7 1 76 29 1.22465e-16 0 0 0
205 7 1 79.2 31 0 0 0 0
207 7 1 82.4 29 1.22465e-16 0 0 0
209 7 1 85.6 31 0 0 0 0
211 7 1 88.8 29 1.22465e-16 0 0 0
213 7 1 92 31 0 0 0 0
215 7 1 95.2 29 1.22465e-16 0 0 0
217 7 1 98.4 31 0 0 0 0
219 7 1 101.6 29 1.22465e-16 0 0 0
221 7 1 104.8 31 0 0 0 0
223 7 1 108 29 1.22465e-16 0 0 0
66 3 2 0 34.4 0 0 0 0
70 3 2 6.4 34.4 0 0 0 0
74 3 3 12.8 34.4 0 0 0 0
78 3 3 19.2 34.4 0 0 0 0
82 3 2 25.6 34.4 0 0 0 0
86 3 2 32 34.4 0 0 0 0
90 3 3 38.4 34.4 0 0 0 0
94 3 3 44.8 34.4 0 0 0 0
194 7 2 60 34.4 0 0 0 0
198 7 2 66.4 34.4 0 0 0 0
202 7 3 72.8 34.4 0 0 0 0
206 7 3 79.2 34.4 0 0 0 0
210 7 2 85.6 34.4 0 0 0 0
214 7 2 92 34.4 0 0 0 0
218 7 3 98.4 34.4 0 0 0 0
222 7 3 104.8 34.4 0 0 0 0
3 1 1 3.2 59 1.22465e-16 0 -1 0
4 1 2 3.2 55.6 5.38845e-16 0 -1 0
7 1 1 9.6 59 1.22465e-16 0 -1 0
8 1 2 9.6 55.6 5.38845e-16 0 -1 0
11 1 1 16 59 1.22465e-16 0 -1 0
12 1 3 16 55.6 5.38845e-16 0 -1 0
15 1 1 22.4 59 1.22465e-16 0 -1 0
16 1 3 22.4 55.6 5.38845e-16 0 -1 0
19 1 1 28.8 59 1.22465e-16 0 -1 0
20 1 2 28.8 55.6 5.38845e-16 0 -1 0
23 1 1 35.2 59 1.22465e-16 0 -1 0
24 1 2 35.2 55.6 5.38845e-16 0 -1 0
27 1 1 41.6 59 1.22465e-16 0 -1 0
28 1 3 41.6 55.6 5.38845e-16 0 -1 0
31 1 1 48 59 1.22465e-16 0 -1 0
32 1 3 48 55.6 5.38845e-16 0 -1 0
131 5 1 63.2 59 1.22465e-16 0 -1 0
132 5 2 63.2 55.6 5.38845e-16 0 -1 0
135 5 1 69.6 59 1.22465e-16 0 -1 0
136 5 2 69.6 55.6 5.38845e-16 0 -1 0
139 5 1 76 59 1.22465e-16 0 -1 0
140 5 3 76 55.6 5.38845e-16 0 -1 0
143 5 1 82.4 59 1.22465e-16 0 -1 0
144 5 3 82.4 55.6 5.38845e-16 0 -1 0
147 5 1 88.8 59 1.22465e-16 0 -1 0
148 5 2 88.8 55.6 5.38845e-16 0 -1 0
151 5 1 95.2 59 1.22465e-16 0 -1 0
152 5 2 95.2 55.6 5.38845e-16 0 -1 0
155 5 1 101.6 59 1.22465e-16 0 -1 0
156 5 3 101.6 55.6 5.38845e-16 0 -1 0
159 5 1 108 59 1.22465e-16 0 -1 0
160 5 3 108 55.6 5.38845e-16 0 -1 0
33 2 1 0 1 30 0 0 0
34 2 2 0 4.4 30 0 0 0
37 2 1 6.4 1 30 0 0 0
38 2 2 6.4 4.4 30 0 0 0
41 2 1 12.8 1 30 0 0 0
42 2 3 12.8 4.4 30 0 0 0
45 2 1 19.2 1 30 0 0 0
46 2 3 19.2 4.4 30 0 0 0
49 2 1 25.6 1 30 0 0 0
50 2 2 25.6 4.4 30 0 0 0
53 2 1 32 1 30 0 0 0
54 2 2 32 4.4 30 0 0 0
57 2 1 38.4 1 30 0 0 0
58 2 3 38.4 4.4 30 0 0 0
61 2 1 44.8 1 30 0 0 0
62 2 3 44.8 4.4 30 0 0 0
161 6 1 60 1 30 0 0 0
162 6 2 60 4.4 30 0 0 0
165 6 1 66.4 1 30 0 0 0
166 6 2 66.4 4.4 30 0 0 0
169 6 1 72.8 1 30 0 0 0
170 6 3 72.8 4.4 30 0 0 0
173 6 1 79.2 1 30 0 0 0
174 6 3 79.2 4.4 30 0 0 0
177 6 1 85.6 1 30 0 0 0
178 6 2 85.6 4.4 30 0 0 0
181 6 1 92 1 30 0 0 0
182 6 2 92 4.4 30 0 0 0
185 6 1 98.4 1 30 0 0 0
186 6 3 98.4 4.4 30 0 0 0
189 6 1 104.8 1 30 0 0 0
190 6 3 104.8 4.4 30 0 0 0
100 4 2 3.2 25.6 30 0 0 0
104 4 2 9.6 25.6 30 0 0 0
108 4 3 16 25.6 30 0 0 0
112 4 3 22.4 25.6 30 0 0 0
116 4 2 28.8 25.6 30 0 0 0
120 4 2 35.2 25.6 30 0 0 0
124 4 3 41.6 25.6 30 0 0 0
128 4 3 48 25.6 30 0 0 0
228 8 2 63.2 25.6 30 0 0 0
232 8 2 69.6 25.6 30 0 0 0
236 8 3 76 25.6 30 0 0 0
240 8 3 82.4 25.6 30 0 0 0
244 8 2 88.8 25.6 30 0 0 0
248 8 2 95.2 25.6 30 0 0 0
252 8 3 101.6 25.6 30 0 0 0
256 8 3 108 25.6 30 0 0 0
97 4 1 0 31 30 0 0 0
99 4 1 3.2 29 30 0 0 0
101 4 1 6.4 31 30 0 0 0
103 4 1 9.6 29 30 0 0 0
105 4 1 12.8 31 30 0 0 0
107 4 1 16 29 30 0 0 0
109 4 1 19.2 31 30 0 0 0
111 4 1 22.4 29 30 0 0 0
113 4 1 25.6 31 30 0 0 0
115 4 1 28.8 29 30 0 0 0
117 4 1 32 31 30 0 0 0
119 4 1 35.2 29 30 0 0 0
121 4 1 38.4 31 30 0 0 0
123 4 1 41.6 29 30 0 0 0
125 4 1 44.8 31 30 0 0 0
127 4 1 48 29 30 0 0 0
225 8 1 60 31 30 0 0 0
227 8 1 63.2 29 30 0 0 0
229 8 1 66.4 31 30 0 0 0
231 8 1 69.6 29 30 0 0 0
233 8 1 72.8 31 30 0 0 0
235 8 1 76 29 30 0 0 0
237 8 1 79.2 31 30 0 0 0
239 8 1 82.4 29 30 0 0 0
241 8 1 85.6 31 30 0 0 0
243 8 1 88.8 29 30 0 0 0
245 8 1 92 31 30 0 0 0
247 8 1 95.2 29 30 0 0 0
249 8 1 98.4 31 30 0 0 0
251 8 1 101.6 29 30 0 0 0
253 8 1 104.8 31 30 0 0 0
255 8 1 108 29 30 0 0 0
98 4 2 0 34.4 30 0 0 0
102 4 2 6.4 34.4 30 0 0 0
106 4 3 12.8 34.4 30 0 0 0
110 4 3 19.2 34.4 30 0 0 0
114 4 2 25.6 34.4 30 0 0 0
118 4 2 32 34.4 30 0 0 0
122 4 3 38.4 34.4 30 0 0 0
126 4 3 44.8 34.4 30 0 0 0
226 8 2 60 34.4 30 0 0 0
230 8 2 66.4 34.4 30 0 0 0
234 8 3 72.8 34.4 30 0 0 0
238 8 3 79.2 34.4 30 0 0 0
242 8 2 85.6 34.4 30 0 0 0
246 8 2 92 34.4 30 0 0 0
250 8 3 98.4 34.4 30 0 0 0
254 8 3 104.8 34.4 30 0 0 0
35 2 1 3.2 59 30 0 -1 0
36 2 2 3.2 55.6 30 0 -1 0
39 2 1 9.6 59 30 0 -1 0
40 2 2 9.6 55.6 30 0 -1 0
43 2 1 16 59 30 0 -1 0
44 2 3 16 55.6 30 0 -1 0
47 2 1 22.4 59 30 0 -1 0
48 2 3 22.4 55.6 30 0 -1 0
51 2 1 28.8 59 30 0 -1 0
52 2 2 28.8 55.6 30 0 -1 0
55 2 1 35.2 59 30 0 -1 0
56 2 2 35.2 55.6 30 0 -1 0
59 2 1 41.6 59 30 0 -1 0
60 2 3 41.6 55.6 30 0 -1 0
63 2 1 48 59 30 0 -1 0
64 2 3 48 55.6 30 0 -1 0
163 6 1 63.2 59 30 0 -1 0
164 6 2 63.2 55.6 30 0 -1 0
167 6 1 69.6 59 30 0 -1 0
168 6 2 69.6 55.6 30 0 -1 0
171 6 1 76 59 30 0 -1 0
172 6 3 76 55.6 30 0 -1 0
175 6 1 82.4 59 30 0 -1 0
176 6 3 82.4 55.6 30 0 -1 0
179 6 1 88.8 59 30 0 -1 0
180 6 2 88.8 55.6 30 0 -1 0
183 6 1 95.2 59 30 0 -1 0
184 6 2 95.2 55.6 30 0 -1 0
187 6 1 101.6 59 30 0 -1 0
188 6 3 101.6 55.6 30 0 -1 0
191 6 1 108 59 30 0 -1 0
192 6 3 108 55.6 30 0 -1 0
ITEM: TIMESTEP
5000
ITEM: NUMBER OF ATOMS
256
ITEM: BOX BOUNDS pp pp pp
0.0000000000000000e+00 1.2000000000000000e+02
0.0000000000000000e+00 6.0000000000000000e+01
0.0000000000000000e+00 6.0000000000000000e+01
ITEM: ATOMS id mol type x y z ix iy iz
9 1 1 20.8666 5.13435 2.93086 0 0 0
10 1 3 20.8712 6.14574 5.95866 0 0 0
11 1 1 23.8951 3.64099 1.12759 0 0 0
13 1 1 25.9062 1.83677 3.2919 0 0 0
14 1 3 25.0449 1.02101 6.39328 0 0 0
15 1 1 28.9396 0.546049 1.66098 0 0 0
158 5 3 97.6883 0.723887 0.695649 0 0 0
6 1 2 20.4698 11.6789 0.856802 0 0 0
72 3 2 12.9596 24.2149 5.09074 0 0 0
71 3 1 13.2698 25.6994 2.26129 0 0 0
76 3 3 18.6271 23.2258 5.39169 0 0 0
75 3 1 19.2062 25.145 2.49069 0 0 0
80 3 3 25.1727 24.0545 6.58886 0 0 0
88 3 2 35.1076 26.7531 2.66952 0 0 0
200 7 2 70.2336 25.2668 4.23579 0 0 0
204 7 3 74.8965 24.5401 5.53665 0 0 0
208 7 3 81.1272 23.372 4.87213 0 0 0
207 7 1 81.4486 26.2487 6.89102 0 0 0
212 7 2 87.7311 22.9859 6.13661 0 0 0
68 3 2 6.4378 24.7858 4.28006 0 0 0
67 3 1 7.24124 25.9198 1.10545 0 0 0
65 3 1 4.66313 26.1145 58.678 0 0 -1
69 3 1 10.6767 25.9105 59.794 0 0 -1
77 3 1 22.5439 25.6173 1.16644 0 0 0
79 3 1 25.3143 25.8015 3.60947 0 0 0
81 3 1 27.7007 28.556 3.24421 0 0 0
82 3 2 28.1006 30.4827 0.652364 0 0 0
87 3 1 35.1994 29.1392 5.00813 0 0 0
89 3 1 37.9245 31.5257 5.1556 0 0 0
90 3 3 37.9141 33.5703 7.83326 0 0 0
195 7 1 64.6791 29.8944 2.16665 0 0 0
196 7 2 65.1247 27.4947 59.9028 0 0 -1
197 7 1 67.7073 31.1393 3.65 0 0 0
199 7 1 70.4884 28.7094 4.08431 0 0 0
209 7 1 84.6332 27.4951 8.01705 0 0 0
211 7 1 87.6062 26.1859 6.11656 0 0 0
214 7 2 87.2227 31.9222 3.54006 0 0 0
213 7 1 88.0508 28.5373 3.235 0 0 0
224 7 3 101.558 32.0788 58.5627 0 0 -1
193 7 1 62.253 32.7407 1.79455 0 0 0
194 7 2 60.8061 34.2419 4.40976 0 0 0
23 1 1 37.7815 53.8782 2.67289 0 -1 0
25 1 1 39.3049 51.1572 4.47949 0 -1 0
140 5 3 69.317 51.7634 1.69766 0 -1 0
148 5 2 82.3289 52.0824 1.47695 0 -1 0
152 5 2 88.6155 52.0698 1.2078 0 -1 0
19 1 1 32.6006 55.8585 0.876176 0 -1 0
17 1 1 29.9878 57.3876 3.0802 0 -1 0
18 1 2 29.4848 56.2869 6.22672 0 -1 0
21 1 1 34.1976 52.8294 2.18453 0 -1 0
28 1 3 44.9234 52.698 2.45627 0 -1 0
29 1 1 43.9239 51.6674 8.67376 0 -1 0
27 1 1 42.9409 51.4022 4.97214 0 -1 0
31 1 1 47.4986 52.222 8.97565 0 -1 0
32 1 3 48.6679 55.2315 7.5753 0 -1 0
129 5 1 56.1985 59.7535 56.1162 0 -1 -1
131 5 1 58.0313 56.8418 57.6562 0 -1 -1
132 5 2 56.7853 55.463 0.512185 0 -1 0
143 5 1 76.1008 54.3453 59.3285 0 -1 -1
144 5 3 76.0604 51.0603 59.222 0 -1 -1
145 5 1 79.0573 56.3403 58.5973 0 -1 -1
147 5 1 82.1228 55.2074 0.378631 0 -1 0
155 5 1 94.3993 55.3822 59.5025 0 -1 -1
156 5 3 93.4393 52.0353 0.270873 0 -1 0
157 5 1 96.9609 57.4633 1.42332 0 -1 0
159 5 1 98.9794 55.7122 3.90801 0 -1 0
160 5 3 100.017 52.4398 3.62019 0 -1 0
84 3 2 27.5341 27.1309 8.98097 0 0 0
203 7 1 75.2523 27.2231 7.28026 0 0 0
85 3 1 32.4881 30.5163 7.21611 0 0 0
83 3 1 28.9918 29.1813 6.74332 0 0 0
86 3 2 33.4287 32.9779 9.44592 0 0 0
201 7 1 72.6973 29.9509 6.97928 0 0 0
205 7 1 78.5946 28.2557 8.38962 0 0 0
202 7 3 72.5773 32.9313 8.36876 0 0 0
206 7 3 79.3947 31.2033 9.42193 0 0 0
210 7 2 84.7199 30.5816 9.13884 0 0 0
198 7 2 68.1001 33.9927 5.37622 0 0 0
22 1 2 33.0149 50.6419 4.30942 0 -1 0
26 1 3 37.4001 48.4138 5.11332 0 -1 0
30 1 3 42.9166 49.1138 10.7977 0 -1 0
58 2 3 38.1661 5.50626 25.438 0 0 0
57 2 1 40.3061 3.30741 27.0599 0 0 0
61 2 1 45.051 3.85711 22.8424 0 0 0
62 2 3 44.7462 7.18546 22.6631 0 0 0
59 2 1 43.4048 1.86514 25.5328 0 0 0
63 2 1 45.777 1.89398 19.8079 0 0 0
64 2 3 45.0063 58.7662 19.7838 0 -1 0
171 6 1 83.5134 0.896527 27.6125 0 0 0
192 6 3 105.649 3.80053 25.5575 0 0 0
191 6 1 105.772 3.7636 28.8901 0 0 0
166 6 2 79.2178 10.6342 25.3834 0 0 0
60 2 3 44.5081 58.7434 26.0894 0 -1 0
172 6 3 81.1713 59.045 29.1765 0 -1 0
51 2 1 33.4623 1.6842 32.7273 0 0 0
54 2 2 35.0797 6.60451 29.4535 0 0 0
53 2 1 36.0739 3.76963 30.994 0 0 0
164 6 2 74.6645 4.17561 30.4225 0 0 0
167 6 1 79.4027 4.27122 25.7038 0 0 0
168 6 2 77.5462 1.47176 26.6333 0 0 0
169 6 1 82.8667 3.4481 25.022 0 0 0
173 6 1 87.1686 59.7411 28.0157 0 -1 0
174 6 3 89.612 2.01558 27.9015 0 0 0
178 6 2 92.7518 0.732145 32.761 0 0 0
188 6 3 102.769 57.7875 25.8647 0 -1 0
189 6 1 105.597 0.665207 30.7167 0 0 0
190 6 3 106.508 0.686371 33.9534 0 0 0
161 6 1 74.9627 10.4365 31.429 0 0 0
163 6 1 75.6547 7.34796 29.5857 0 0 0
165 6 1 78.3703 7.65535 27.0645 0 0 0
170 6 3 85.0596 5.35904 23.3692 0 0 0
162 6 2 74.9004 13.4232 29.666 0 0 0
116 4 2 28.0429 24.4886 33.0731 0 0 0
115 4 1 30.0086 27.2284 33.213 0 0 0
120 4 2 35.0472 24.6777 28.4996 0 0 0
124 4 3 39.9095 26.1657 26.5579 0 0 0
128 4 3 46.4363 23.611 27.3434 0 0 0
252 8 3 97.0031 25.7791 35.2739 0 0 0
111 4 1 24.9506 29.6419 33.0774 0 0 0
117 4 1 33.5559 27.1697 34.3012 0 0 0
119 4 1 35.7298 25.3906 31.7972 0 0 0
121 4 1 39.1137 26.2695 32.7168 0 0 0
123 4 1 40.7488 27.5951 29.6551 0 0 0
125 4 1 44.1708 28.6353 30.3667 0 0 0
126 4 3 44.5075 31.5514 32.1043 0 0 0
127 4 1 46.6796 26.1508 29.5076 0 0 0
232 8 2 68.0271 32.6447 34.0689 0 0 0
236 8 3 74.4438 31.8764 32.8125 0 0 0
235 8 1 75.2925 34.716 34.8395 0 0 0
240 8 3 80.7294 30.4565 33.0026 0 0 0
239 8 1 80.9965 33.8982 33.1405 0 0 0
241 8 1 84.4361 35.2621 33.7651 0 0 0
244 8 2 85.1573 29.532 33.8236 0 0 0
243 8 1 86.7217 32.4247 33.6703 0 0 0
245 8 1 89.8267 32.87 35.3629 0 0 0
254 8 3 102.826 33.0195 36.9425 0 0 0
180 6 2 90.8329 51.8051 30.9296 0 -1 0
55 2 1 38.9487 1.77637 30.1302 0 0 0
56 2 2 39.7182 59.0923 32.0044 0 -1 0
176 6 3 86.7268 54.1047 30.1958 0 -1 0
177 6 1 91.3797 57.693 31.951 0 -1 0
175 6 1 87.788 57.2639 30.6936 0 -1 0
184 6 2 97.5957 54.5921 27.3527 0 -1 0
183 6 1 98.7561 54.3637 30.5069 0 -1 0
187 6 1 103.73 57.7386 29.2275 0 -1 0
185 6 1 101.85 55.8735 31.7361 0 -1 0
46 2 3 24.652 3.99115 35.1572 0 0 0
45 2 1 26.3633 1.73407 37.1863 0 0 0
43 2 1 24.7192 0.370534 40.2852 0 0 0
50 2 2 28.6362 5.83674 32.9634 0 0 0
49 2 1 31.2499 3.95882 34.5949 0 0 0
47 2 1 29.9709 1.96307 37.3569 0 0 0
112 4 3 24.5363 26.7599 31.3484 0 0 0
248 8 2 91.7105 27.3506 33.5421 0 0 0
256 8 3 103.127 24.8253 32.7278 0 0 0
100 4 2 6.67429 31.9199 36.4521 0 0 0
104 4 2 11.764 27.9227 37.2416 0 0 0
103 4 1 13.6655 30.7075 38.1457 0 0 0
108 4 3 18.8151 26.3286 34.8111 0 0 0
107 4 1 19.2486 29.6512 35.3677 0 0 0
109 4 1 22.691 31.096 35.5919 0 0 0
113 4 1 28.4967 30.3821 33.977 0 0 0
114 4 2 29.8932 32.7913 35.9393 0 0 0
122 4 3 39.9877 27.8805 35.5443 0 0 0
118 4 2 34.6755 28.019 37.4655 0 0 0
228 8 2 62.0744 33.2431 37.6895 0 0 0
225 8 1 62.0373 37.0826 42.3594 0 0 0
227 8 1 63.8245 34.9326 39.9857 0 0 0
231 8 1 68.9213 35.3476 36.1528 0 0 0
247 8 1 92.399 30.7374 34.0672 0 0 0
249 8 1 95.7062 31.8615 35.3973 0 0 0
251 8 1 98.1439 29.0002 35.1674 0 0 0
253 8 1 101.619 30.2897 35.2468 0 0 0
255 8 1 103.612 27.1195 35.0689 0 0 0
99 4 1 8.44914 34.3782 38.2489 0 0 0
101 4 1 12.1439 34.0808 39.2684 0 0 0
102 4 2 14.2298 36.8151 39.821 0 0 0
105 4 1 16.7062 31.9237 36.336 0 0 0
106 4 3 17.2644 35.2306 36.1275 0 0 0
110 4 3 23.4825 34.1354 37.1831 0 0 0
229 8 1 67.187 36.7787 39.1379 0 0 0
237 8 1 78.5291 36.0263 34.9887 0 0 0
233 8 1 72.4732 36.651 36.3896 0 0 0
234 8 3 72.8075 39.4337 38.2288 0 0 0
242 8 2 84.4879 37.9232 36.0189 0 0 0
238 8 3 79.4315 39.0471 36.3589 0 0 0
246 8 2 90.6351 35.5606 37.2336 0 0 0
250 8 3 96.4971 35.0693 35.1323 0 0 0
33 2 1 11.2004 53.9008 43.2241 0 -1 0
34 2 2 8.52553 52.9184 41.4486 0 -1 0
35 2 1 14.639 53.5146 41.963 0 -1 0
38 2 2 14.4163 58.515 38.5911 0 -1 0
37 2 1 16.1933 56.6127 40.6257 0 -1 0
39 2 1 19.9405 56.8115 41.2446 0 -1 0
42 2 3 18.9227 1.6209 37.6574 0 0 0
41 2 1 20.9893 0.0307935 39.844 0 0 0
48 2 3 31.9943 59.4418 38.6679 0 -1 0
52 2 2 33.9448 58.5413 33.646 0 -1 0
179 6 1 92.7778 54.1286 32.2705 0 -1 0
181 6 1 96.5417 53.795 33.0635 0 -1 0
182 6 2 97.6165 53.8182 36.2797 0 -1 0
186 6 3 102.547 55.5442 34.9513 0 -1 0
97 4 1 6.35183 37.3522 39.4271 0 0 0
98 4 2 7.56243 40.2837 40.6797 0 0 0
226 8 2 63.402 40.1679 43.0246 0 0 0
230 8 2 68.6795 38.9045 41.2684 0 0 0
36 2 2 16.6835 51.1327 43.1361 0 -1 0
40 2 2 21.7336 55.4662 43.7563 0 -1 0
44 2 3 25.7783 57.7427 42.2769 0 -1 0
4 1 2 14.0556 8.15846 55.1416 0 0 -1
7 1 1 18.0955 5.67434 0.677991 0 0 0
8 1 2 17.0762 2.95035 58.9886 0 0 -1
12 1 3 24.3588 4.19615 57.9073 0 0 -1
16 1 3 30.2927 1.9236 58.8213 0 0 -1
130 5 2 57.2505 3.06366 55.8939 0 0 -1
134 5 2 62.6759 59.0814 54.7508 0 -1 -1
142 5 3 73.5803 59.1234 57.8482 0 -1 -1
146 5 2 78.4965 59.858 57.9709 0 -1 -1
150 5 2 84.5223 58.6629 56.0594 0 -1 -1
154 5 3 90.9083 1.00365 59.7039 0 0 -1
3 1 1 16.6765 10.0453 56.3218 0 0 -1
5 1 1 18.2494 9.28568 59.6335 0 0 -1
1 1 1 17.2445 13.1907 54.4626 0 0 -1
2 1 2 20.2947 15.0754 54.178 0 0 -1
92 3 3 39.723 28.6311 59.9384 0 0 -1
96 3 3 43.1148 32.0945 55.3574 0 0 -1
216 7 2 92.4481 24.7193 1.2288 0 0 0
220 7 3 97.2761 26.9132 57.0858 0 0 -1
66 3 2 4.58976 24.2807 55.8337 0 0 -1
70 3 2 11.3701 26.1646 56.5367 0 0 -1
73 3 1 16.4375 25.8121 0.387331 0 0 0
74 3 3 16.5252 26.7042 57.1645 0 0 -1
78 3 3 23.2776 27.1629 58.2263 0 0 -1
91 3 1 40.2072 31.2373 2.317 0 0 0
95 3 1 43.6374 34.2094 58.0498 0 0 -1
93 3 1 41.4093 34.4221 1.01624 0 0 0
215 7 1 90.8477 27.4867 0.803206 0 0 0
217 7 1 92.6742 30.6476 59.4935 0 0 -1
219 7 1 95.577 29.8489 57.427 0 0 -1
221 7 1 96.6819 32.5257 55.2649 0 0 -1
223 7 1 100.167 33.4386 55.808 0 0 -1
94 3 3 42.2677 36.5998 3.45873 0 0 0
218 7 3 92.0103 33.7106 0.906068 0 0 0
222 7 3 94.4602 34.3532 53.172 0 0 -1
24 1 2 39.4888 56.6504 1.50845 0 -1 0
20 1 2 33.9545 57.7591 58.3462 0 -1 -1
133 5 1 61.4371 56.6776 56.86 0 -1 -1
135 5 1 63.8865 55.1188 59.1463 0 -1 -1
136 5 2 63.2609 53.077 1.70981 0 -1 0
137 5 1 67.0976 57.0717 58.8588 0 -1 -1
138 5 3 67.1642 59.4928 56.4985 0 -1 -1
139 5 1 69.8783 54.6705 60.0248 0 -1 -1
141 5 1 73.1149 56.4073 59.773 0 -1 -1
149 5 1 84.881 56.7239 58.7401 0 -1 -1
153 5 1 91.3109 57.5865 59.2216 0 -1 -1
151 5 1 88.2526 55.1765 59.5899 0 -1 -1
ITEM: TIMESTEP
10000
ITEM: NUMBER OF ATOMS
256
ITEM: BOX BOUNDS pp pp pp
0.0000000000000000e+00 1.2000000000000000e+02
0.0000000000000000e+00 6.0000000000000000e+01
0.0000000000000000e+00 6.0000000000000000e+01
ITEM: ATOMS id mol type x y z ix iy iz
12 1 3 31.5905 5.9821 57.9589 0 0 -1
15 1 1 36.4541 3.01103 2.39544 0 0 0
17 1 1 38.3318 2.38623 5.44449 0 0 0
9 1 1 31.9223 11.1867 1.71748 0 0 0
7 1 1 30.2217 12.8823 59.1418 0 0 -1
8 1 2 30.1398 11.8914 55.8755 0 0 -1
13 1 1 33.7979 5.46953 3.54581 0 0 0
11 1 1 32.3456 7.56492 0.887292 0 0 0
72 3 2 19.2775 11.3426 58.1627 0 0 -1
76 3 3 19.2709 12.7813 5.18665 0 0 0
2 1 2 21.4634 17.2679 4.40034 0 0 0
73 3 1 20.8282 16.9831 0.720854 0 0 0
1 1 1 22.0995 15.0293 1.97021 0 0 0
75 3 1 19.3582 15.8183 4.0217 0 0 0
79 3 1 23.3899 17.4125 7.53205 0 0 0
10 1 3 31.5261 12.0637 5.00403 0 0 0
6 1 2 28.8397 16.4004 3.81805 0 0 0
80 3 3 25.2871 14.928 6.09631 0 0 0
5 1 1 28.1957 15.4791 0.559635 0 0 0
77 3 1 20.3118 18.6487 6.18894 0 0 0
78 3 3 19.7546 21.9214 6.21267 0 0 0
84 3 2 30.6115 18.4831 7.1419 0 0 0
88 3 2 35.5591 22.0084 9.22614 0 0 0
216 7 2 86.6844 25.9542 6.61855 0 0 0
220 7 3 88.7754 21.9113 3.09495 0 0 0
193 7 1 58.4569 32.0737 5.15379 0 0 0
214 7 2 83.1153 32.0934 0.478037 0 0 0
213 7 1 83.8849 30.6672 3.42632 0 0 0
215 7 1 86.2454 27.7415 3.63329 0 0 0
217 7 1 88.6416 27.524 0.728622 0 0 0
194 7 2 60.0722 34.4832 3.46353 0 0 0
148 5 2 78.3245 44.2015 6.22622 0 -1 0
152 5 2 84.2483 46.406 5.33308 0 -1 0
23 1 1 40.6799 53.4047 5.06945 0 -1 0
24 1 2 43.0544 53.4273 7.58523 0 -1 0
141 5 1 71.589 52.3963 6.32651 0 -1 0
143 5 1 73.446 49.2767 6.24316 0 -1 0
144 5 3 74.1043 47.2943 8.72362 0 -1 0
147 5 1 77.4512 45.6507 3.27837 0 -1 0
145 5 1 75.1725 48.4046 3.21302 0 -1 0
151 5 1 83.5075 47.0492 2.12344 0 -1 0
149 5 1 80.163 46.461 0.618292 0 -1 0
156 5 3 86.6636 50.3659 6.19953 0 -1 0
155 5 1 87.2929 51.2732 3.04382 0 -1 0
153 5 1 85.2456 49.4558 0.426349 0 -1 0
157 5 1 89.8185 53.6795 1.7899 0 -1 0
160 5 3 94.5562 49.6617 3.03273 0 -1 0
159 5 1 93.1525 52.9357 3.1197 0 -1 0
21 1 1 38.26 56.31 4.70117 0 -1 0
19 1 1 40.2409 59.3014 4.67692 0 -1 0
22 1 2 35.0553 56.2277 3.22669 0 -1 0
129 5 1 54.4184 53.2541 4.43853 0 -1 0
130 5 2 52.7484 55.7485 6.02788 0 -1 0
134 5 2 58.8775 57.72 7.90338 0 -1 0
138 5 3 66.2516 56.6626 5.55925 0 -1 0
142 5 3 72.5722 54.875 4.36701 0 -1 0
158 5 3 89.2479 55.7706 59.1602 0 -1 -1
18 1 2 37.5662 3.53135 8.66249 0 0 0
14 1 3 33.4126 6.03995 6.8509 0 0 0
82 3 2 23.1283 23.3571 9.0218 0 0 0
81 3 1 24.9325 20.3374 9.28301 0 0 0
83 3 1 28.3096 20.727 8.29603 0 0 0
85 3 1 29.6265 23.0227 10.5204 0 0 0
86 3 2 27.8344 25.1019 12.6467 0 0 0
87 3 1 32.9412 24.1671 9.27334 0 0 0
91 3 1 36.7727 29.0543 9.70014 0 0 0
89 3 1 33.2853 27.954 9.50225 0 0 0
90 3 3 30.4063 29.9174 10.0088 0 0 0
92 3 3 39.2204 26.3662 10.2606 0 0 0
96 3 3 43.6152 31.55 12.0138 0 0 0
95 3 1 41.1631 33.1939 10.0402 0 0 0
196 7 2 57.8573 29.7874 11.0249 0 0 0
195 7 1 59.6685 31.3219 8.57408 0 0 0
200 7 2 64.8916 27.4687 11.6527 0 0 0
199 7 1 65.046 30.6929 11.3365 0 0 0
204 7 3 71.4825 27.1608 11.8736 0 0 0
203 7 1 71.4644 30.373 12.268 0 0 0
205 7 1 73.6963 32.1988 9.99347 0 0 0
207 7 1 75.7675 30.6005 7.47228 0 0 0
208 7 3 75.8985 27.1596 7.58919 0 0 0
212 7 2 80.7889 26.1735 7.06322 0 0 0
211 7 1 81.6063 29.6421 6.33672 0 0 0
209 7 1 79.0284 32.1841 6.49298 0 0 0
94 3 3 35.3147 35.1438 9.69655 0 0 0
93 3 1 37.5073 32.531 10.3836 0 0 0
197 7 1 62.8173 32.9511 9.46726 0 0 0
198 7 2 63.245 36.2444 9.20735 0 0 0
201 7 1 68.3801 32.4316 12.3116 0 0 0
202 7 3 68.4434 35.6191 12.4243 0 0 0
206 7 3 74.8373 35.1491 11.1505 0 0 0
210 7 2 80.0652 35.3324 6.86352 0 0 0
30 1 3 33.2045 45.4109 5.00019 0 -1 0
29 1 1 36.3313 44.4147 4.86475 0 -1 0
31 1 1 36.5168 41.0212 6.34978 0 -1 0
26 1 3 36.1197 50.6694 2.25751 0 -1 0
25 1 1 38.4091 50.6202 4.53579 0 -1 0
27 1 1 39.1403 46.967 5.40351 0 -1 0
28 1 3 40.5587 46.4946 8.4079 0 -1 0
132 5 2 59.4142 51.6479 1.84744 0 -1 0
136 5 2 61.9439 51.0983 11.8022 0 -1 0
140 5 3 67.4099 48.1351 8.77266 0 -1 0
139 5 1 68.0711 51.3267 7.3213 0 -1 0
131 5 1 58.0142 52.6473 4.71756 0 -1 0
133 5 1 59.7805 54.6485 7.23097 0 -1 0
135 5 1 62.6266 52.7879 8.86477 0 -1 0
137 5 1 65.9548 54.1655 8.06767 0 -1 0
62 2 3 41.9612 57.2059 20.327 0 -1 0
162 6 2 77.5292 2.87335 20.7665 0 0 0
32 1 3 38.8804 38.7523 5.34932 0 -1 0
172 6 3 81.1871 47.9152 21.0474 0 -1 0
171 6 1 83.6233 49.1696 18.8536 0 -1 0
169 6 1 82.4311 51.2386 16.1251 0 -1 0
166 6 2 81.4375 57.9345 15.1855 0 -1 0
165 6 1 79.3165 56.0433 17.3693 0 -1 0
170 6 3 84.0753 52.9672 13.8996 0 -1 0
174 6 3 88.939 52.1933 18.1165 0 -1 0
57 2 1 41.717 56.8741 27.2128 0 -1 0
58 2 3 40.4192 54.2549 25.5978 0 -1 0
61 2 1 42.9062 -0.00923752 22.0709 0 0 0
59 2 1 42.9206 60.1033 25.756 0 -1 0
63 2 1 45.0863 2.7107 20.9151 0 0 0
64 2 3 47.9868 3.47744 22.6075 0 0 0
161 6 1 76.6474 59.7473 21.3223 0 -1 0
120 4 2 32.3161 33.3582 23.2848 0 0 0
124 4 3 36.7633 30.9306 22.4855 0 0 0
128 4 3 34.9815 36.2116 26.7431 0 0 0
127 4 1 38.2171 36.0455 27.452 0 0 0
180 6 2 94.7585 44.6944 26.1167 0 -1 0
168 6 2 76.9764 51.0513 18.6298 0 -1 0
173 6 1 87.1618 49.7806 19.6472 0 -1 0
176 6 3 87.711 44.6566 23.2237 0 -1 0
175 6 1 88.8361 46.8004 21.0245 0 -1 0
177 6 1 92.2132 48.3032 21.5177 0 -1 0
179 6 1 93.5905 47.7278 25.0081 0 -1 0
183 6 1 97.733 51.0592 27.447 0 -1 0
184 6 2 99.8834 48.6634 28.1625 0 -1 0
60 2 3 43.9095 2.57673 27.8107 0 0 0
164 6 2 77.9347 54.2261 23.0712 0 -1 0
163 6 1 78.6738 56.746 20.8452 0 -1 0
167 6 1 79.2721 52.5681 16.9359 0 -1 0
178 6 2 93.2286 51.1477 19.5874 0 -1 0
111 4 1 21.0204 34.8558 29.4454 0 0 0
113 4 1 24.3458 33.8294 30.7248 0 0 0
115 4 1 26.341 33.0719 27.9164 0 0 0
117 4 1 29.6339 31.5472 28.7773 0 0 0
119 4 1 32.3015 32.705 26.5201 0 0 0
121 4 1 35.1351 30.713 28.0957 0 0 0
123 4 1 37.7116 30.8804 25.6475 0 0 0
122 4 3 35.9043 30.9654 31.5615 0 0 0
126 4 3 42.4923 32.003 29.7185 0 0 0
248 8 2 85.8386 32.4679 30.2778 0 0 0
252 8 3 88.2048 28.1679 31.6353 0 0 0
251 8 1 91.4627 28.983 31.9483 0 0 0
100 4 2 4.69094 42.5077 31.6245 0 0 0
104 4 2 11.38 42.3618 31.0347 0 0 0
108 4 3 17.3492 40.0974 29.959 0 0 0
116 4 2 25.0989 32.8792 24.7643 0 0 0
112 4 3 20.5594 34.4574 25.9045 0 0 0
125 4 1 40.224 32.9046 27.0479 0 0 0
247 8 1 88.6091 34.2839 30.8174 0 0 0
249 8 1 91.8028 32.5482 30.7877 0 0 0
250 8 3 93.8902 34.4496 32.4631 0 0 0
182 6 2 92.3338 53.4486 26.3262 0 -1 0
181 6 1 94.4466 50.8966 26.6677 0 -1 0
188 6 3 104.413 51.5655 27.911 0 -1 0
187 6 1 102.571 54.412 28.6674 0 -1 0
50 2 2 29.912 56.8229 31.5315 0 -1 0
54 2 2 35.4062 54.4594 28.5612 0 -1 0
53 2 1 37.154 56.5925 31.0438 0 -1 0
55 2 1 40.7399 57.5339 30.4675 0 -1 0
56 2 2 41.7192 0.249473 32.0285 0 0 0
185 6 1 98.9881 54.6293 27.5362 0 -1 0
186 6 3 96.9149 57.2132 28.1744 0 -1 0
189 6 1 103.331 56.9216 31.148 0 -1 0
190 6 3 102.925 0.241393 30.3251 0 0 0
192 6 3 104.805 52.3969 35.2537 0 -1 0
191 6 1 104.916 55.592 34.3037 0 -1 0
48 2 3 33.2977 57.047 40.1765 0 -1 0
107 4 1 16.5652 37.4521 31.7273 0 0 0
109 4 1 18.5014 34.3624 31.9717 0 0 0
110 4 3 18.3646 32.0065 34.3804 0 0 0
114 4 2 24.646 32.6643 33.7445 0 0 0
118 4 2 30.792 30.6143 31.9222 0 0 0
244 8 2 84.4021 32.4344 35.6172 0 0 0
256 8 3 88.5903 31.7508 37.7973 0 0 0
255 8 1 91.6225 30.1287 37.7076 0 0 0
253 8 1 93.3971 28.6008 34.9766 0 0 0
254 8 3 96.7811 28.1953 35.3683 0 0 0
103 4 1 11.0838 40.0234 33.4515 0 0 0
101 4 1 8.68166 40.4571 36.224 0 0 0
102 4 2 9.52324 39.902 39.5271 0 0 0
105 4 1 13.3133 36.9832 33.613 0 0 0
106 4 3 12.6397 34.1934 35.4523 0 0 0
243 8 1 86.4682 35.1495 36.2946 0 0 0
245 8 1 88.6869 36.5682 33.771 0 0 0
246 8 2 90.8637 38.9277 34.6351 0 0 0
99 4 1 5.91454 42.562 34.87 0 0 0
97 4 1 3.29516 43.4644 37.1578 0 0 0
98 4 2 3.57966 44.3782 40.5111 0 0 0
242 8 2 89.0504 38.4036 40.6308 0 0 0
46 2 3 25.5202 54.1583 35.8691 0 -1 0
49 2 1 32.0161 56.5474 34.1578 0 -1 0
45 2 1 27.5767 55.3653 38.3935 0 -1 0
47 2 1 30.9547 56.5503 37.814 0 -1 0
51 2 1 35.4325 58.0352 33.9915 0 -1 0
52 2 2 37.003 59.5941 36.7617 0 -1 0
240 8 3 80.6138 36.0394 40.7819 0 0 0
232 8 2 74.8575 37.4067 45.0119 0 0 0
236 8 3 79.1136 33.9738 47.5376 0 0 0
235 8 1 81.0079 36.7803 47.1943 0 0 0
239 8 1 83.8718 35.8682 41.8456 0 0 0
237 8 1 84.3664 36.5686 45.4934 0 0 0
241 8 1 86.7808 36.3677 39.6824 0 0 0
228 8 2 71.4242 40.2143 41.4952 0 0 0
227 8 1 71.4489 42.1759 44.3891 0 0 0
229 8 1 74.8392 43.3363 45.2742 0 0 0
231 8 1 76.5134 40.2936 46.2536 0 0 0
233 8 1 80.0661 40.1791 46.4587 0 0 0
234 8 3 82.0694 42.0855 44.4033 0 0 0
34 2 2 12.9917 55.1063 46.9626 0 -1 0
38 2 2 16.9942 57.1045 45.0663 0 -1 0
37 2 1 19.0601 55.9626 47.5043 0 -1 0
42 2 3 20.5035 56.7689 40.136 0 -1 0
43 2 1 26.3741 55.7205 42.0332 0 -1 0
41 2 1 22.8248 55.3685 42.3952 0 -1 0
39 2 1 22.2197 54.6412 46.0849 0 -1 0
44 2 3 28.4075 55.9546 44.7297 0 -1 0
225 8 1 68.6313 43.4028 46.3298 0 0 0
230 8 2 74.9309 46.4308 46.6613 0 0 0
226 8 2 66.9832 41.3868 48.7951 0 0 0
238 8 3 87.5919 37.1163 46.7157 0 0 0
33 2 1 13.9933 53.7083 49.8975 0 -1 0
35 2 1 17.66 53.912 50.2603 0 -1 0
36 2 2 19.3266 53.4423 53.2038 0 -1 0
40 2 2 25.0386 54.3748 48.1158 0 -1 0
16 1 3 37.2826 2.17978 59.2912 0 0 -1
68 3 2 24.2359 10.2559 3.29897 0 0 0
66 3 2 29.9321 9.4367 55.8937 0 0 -1
67 3 1 26.2959 11.2018 0.908786 0 0 0
65 3 1 28.5363 8.93535 58.8901 0 0 -1
69 3 1 25.2235 13.6958 58.5311 0 0 -1
71 3 1 21.3812 13.9555 58.8317 0 0 -1
4 1 2 23.8786 17.1756 56.6417 0 0 -1
3 1 1 24.7496 15.2412 59.378 0 0 -1
74 3 3 23.4514 19.1103 0.8726 0 0 0
70 3 2 27.4918 16.2078 57.7958 0 0 -1
223 7 1 90.315 20.2624 55.4409 0 0 -1
219 7 1 89.2319 23.9041 0.453783 0 0 0
224 7 3 91.9288 18.339 57.4715 0 0 -1
218 7 3 90.6825 29.9578 59.5962 0 0 -1
222 7 3 88.5515 26.0943 54.6302 0 0 -1
221 7 1 89.0002 23.5763 56.885 0 0 -1
146 5 2 74.9061 50.7661 0.691968 0 -1 0
150 5 2 79.8576 47.5631 57.2984 0 -1 -1
20 1 2 43.6739 58.9661 4.99465 0 -1 0
154 5 3 84.2583 50.5875 57.4004 0 -1 -1
ITEM: TIMESTEP
15000
ITEM: NUMBER OF ATOMS
256
ITEM: BOX BOUNDS pp pp pp
0.0000000000000000e+00 1.2000000000000000e+02
0.0000000000000000e+00 6.0000000000000000e+01
0.0000000000000000e+00 6.0000000000000000e+01
ITEM: ATOMS id mol type x y z ix iy iz
13 1 1 29.6664 3.57387 1.46253 0 0 0
11 1 1 32.4799 6.16264 1.31297 0 0 0
14 1 3 26.483 4.81493 1.02066 0 0 0
72 3 2 25.9796 11.7601 0.376462 0 0 0
9 1 1 32.1984 9.3097 3.09 0 0 0
10 1 3 29.2879 10.617 4.05292 0 0 0
67 3 1 32.5119 11.9543 1.6431 0 0 0
7 1 1 34.895 11.4354 1.82674 0 0 0
65 3 1 34.9478 10.1307 3.88381 0 0 0
66 3 2 36.9267 7.52689 3.36472 0 0 0
8 1 2 37.5181 9.6333 0.658124 0 0 0
68 3 2 30.8132 14.7015 2.92328 0 0 0
84 3 2 33.9007 19.324 59.6652 0 0 -1
88 3 2 36.504 26.1678 -0.133753 0 0 0
92 3 3 37.0473 32.3323 1.07322 0 0 0
204 7 3 69.8568 33.1568 10.5375 0 0 0
212 7 2 81.8312 31.8509 7.73385 0 0 0
208 7 3 74.7112 31.6923 4.9503 0 0 0
207 7 1 75.6178 34.8826 5.57601 0 0 0
211 7 1 81.9322 34.1953 5.10898 0 0 0
213 7 1 83.9893 34.0158 2.11807 0 0 0
216 7 2 86.0987 28.4981 4.40942 0 0 0
215 7 1 86.6624 31.6288 3.10107 0 0 0
219 7 1 92.5654 32.6817 3.50061 0 0 0
221 7 1 92.4847 35.8734 4.95157 0 0 0
220 7 3 93.1529 29.8767 5.48961 0 0 0
32 1 3 27.3645 37.1385 59.602 0 -1 -1
202 7 3 71.3413 41.1508 5.45798 0 0 0
209 7 1 78.8156 36.4229 4.27626 0 0 0
210 7 2 79.0528 39.622 2.98841 0 0 0
150 5 2 78.8657 38.5752 5.93151 0 -1 0
154 5 3 83.5915 38.9242 2.95863 0 -1 0
214 7 2 84.2507 35.9114 59.3278 0 0 -1
222 7 3 90.113 38.5448 4.34385 0 0 0
224 7 3 96.7671 33.6244 9.04169 0 0 0
223 7 1 94.6068 35.9242 8.06056 0 0 0
27 1 1 30.689 43.3062 58.3753 0 -1 -1
28 1 3 30.885 42.4558 1.82598 0 -1 0
198 7 2 67.1774 43.1776 4.12483 0 0 0
146 5 2 72.5191 45.9603 4.29818 0 -1 0
153 5 1 84.2538 41.4576 5.06485 0 -1 0
155 5 1 85.6814 44.205 3.16127 0 -1 0
157 5 1 88.7688 43.4347 1.45388 0 -1 0
159 5 1 91.4239 43.2053 4.01499 0 -1 0
156 5 3 84.7468 46.92 4.19002 0 -1 0
23 1 1 30.3823 48.6104 0.83847 0 -1 0
21 1 1 29.024 51.6497 59.8486 0 -1 -1
24 1 2 30.1175 46.7893 3.86693 0 -1 0
131 5 1 63.9436 48.8503 3.75398 0 -1 0
129 5 1 67.2921 49.0699 2.61134 0 -1 0
133 5 1 63.9348 49.6815 7.2486 0 -1 0
15 1 1 30.7724 0.392187 2.92495 0 0 0
17 1 1 28.6385 57.6237 1.74712 0 -1 0
19 1 1 29.9763 53.9936 2.22665 0 -1 0
132 5 2 62.4739 46.1557 2.16268 0 -1 0
200 7 2 64.6011 36.3919 7.78249 0 0 0
203 7 1 71.618 35.9457 9.58242 0 0 0
196 7 2 59.4273 42.6961 9.08695 0 0 0
195 7 1 62.6962 43.8797 8.53362 0 0 0
199 7 1 66.7674 38.9526 8.11609 0 0 0
197 7 1 65.2283 41.8561 6.61383 0 0 0
201 7 1 69.9995 38.3418 7.01298 0 0 0
205 7 1 75.0238 36.0077 9.02786 0 0 0
206 7 3 76.7976 38.9575 9.83061 0 0 0
193 7 1 64.6341 45.6939 10.8926 0 0 0
194 7 2 68.0038 44.9016 10.9592 0 0 0
140 5 3 63.6823 40.2655 11.006 0 -1 0
139 5 1 64.7465 43.596 10.7708 0 -1 0
145 5 1 73.1949 44.762 7.40475 0 -1 0
144 5 3 70.9394 42.3031 12.8224 0 -1 0
143 5 1 70.58 43.0755 9.45238 0 -1 0
147 5 1 76.0249 43.0423 8.84793 0 -1 0