ITEM: TIMESTEP
0
ITEM: NUMBER OF ATOMS
256
ITEM: BOX BOUNDS pp pp pp
0.0000000000000000e+00 1.2000000000000000e+02
0.0000000000000000e+00 6.0000000000000000e+01
0.0000000000000000e+00 6.0000000000000000e+01
ITEM: ATOMS id mol type x y z ix iy iz
1 1 1 0 1 0 0 0 0
2 1 2 0 4.4 0 0 0 0
5 1 1 6.4 1 0 0 0 0
6 1 2 6.4 4.4 0 0 0 0
9 1 1 12.8 1 0 0 0 0
10 1 2 12.8 4.4 0 0 0 0
13 1 1 19.2 1 0 0 0 0
14 1 2 19.2 4.4 0 0 0 0
17 1 1 25.6 1 0 0 0 0
18 1 3 25.6 4.4 0 0 0 0
21 1 1 32 1 0 0 0 0
22 1 3 32 4.4 0 0 0 0
25 1 1 38.4 1 0 0 0 0
26 1 3 38.4 4.4 0 0 0 0
29 1 1 44.8 1 0 0 0 0
30 1 3 44.8 4.4 0 0 0 0
129 5 1 60 1 0 0 0 0
130 5 2 60 4.4 0 0 0 0
133 5 1 66.4 1 0 0 0 0
134 5 2 66.4 4.4 0 0 0 0
137 5 1 72.8 1 0 0 0 0
138 5 2 72.8 4.4 0 0 0 0
141 5 1 79.2 1 0 0 0 0
142 5 2 79.2 4.4 0 0 0 0
145 5 1 85.6 1 0 0 0 0
146 5 3 85.6 4.4 0 0 0 0
149 5 1 92 1 0 0 0 0
150 5 3 92 4.4 0 0 0 0
153 5 1 98.4 1 0 0 0 0
154 5 3 98.4 4.4 0 0 0 0
157 5 1 104.8 1 0 0 0 0
158 5 3 104.8 4.4 0 0 0 0
68 3 2 3.2 25.6 5.38845e-16 0 0 0
72 3 2 9.6 25.6 5.38845e-16 0 0 0
76 3 2 16 25.6 5.38845e-16 0 0 0
80 3 2 22.4 25.6 5.38845e-16 0 0 0
84 3 3 28.8 25.6 5.38845e-16 0 0 0
88 3 3 35.2 25.6 5.38845e-16 0 0 0
92 3 3 41.6 25.6 5.38845e-16 0 0 0
96 3 3 48 25.6 5.38845e-16 0 0 0
196 7 2 63.2 25.6 5.38845e-16 0 0 0
200 7 2 69.6 25.6 5.38845e-16 0 0 0
204 7 2 76 25.6 5.38845e-16 0 0 0
208 7 2 82.4 25.6 5.38845e-16 0 0 0
212 7 3 88.8 25.6 5.38845e-16 0 0 0
216 7 3 95.2 25.6 5.38845e-16 0 0 0
220 7 3 101.6 25.6 5.38845e-16 0 0 0
224 7 3 108 25.6 5.38845e-16 0 0 0
65 3 1 0 31 0 0 0 0
67 3 1 3.2 29 1.22465e-16 0 0 0
69 3 1 6.4 31 0 0 0 0
71 3 1 9.6 29 1.22465e-16 0 0 0
73 3 1 12.8 31 0 0 0 0
75 3 1 16 29 1.22465e-16 0 0 0
77 3 1 19.2 31 0 0 0 0
79 3 1 22.4 29 1.22465e-16 0 0 0
81 3 1 25.6 31 0 0 0 0
83 3 1 28.8 29 1.22465e-16 0 0 0
85 3 1 32 31 0 0 0 0
87 3 1 35.2 29 1.22465e-16 0 0 0
89 3 1 38.4 31 0 0 0 0
91 3 1 41.6 29 1.22465e-16 0 0 0
93 3 1 44.8 31 0 0 0 0
95 3 1 48 29 1.22465e-16 0 0 0
193 7 1 60 31 0 0 0 0
195 7 1 63.2 29 1.22465e-16 0 0 0
197 7 1 66.4 31 0 0 0 0
199 7 1 69.6 29 1.22465e-16 0 0 0
201 7 1 72.8 31 0 0 0 0
203 7 1 76 29 1.22465e-16 0 0 0
205 7 1 79.2 31 0 0 0 0
207 7 1 82.4 29 1.22465e-16 0 0 0
209 7 1 85.6 31 0 0 0 0
211 7 1 88.8 29 1.22465e-16 0 0 0
213 7 1 92 31 0 0 0 0
215 7 1 95.2 29 1.22465e-16 0 0 0
217 7 1 98.4 31 0 0 0 0
219 7 1 101.6 29 1.22465e-16 0 0 0
221 7 1 104.8 31 0 0 0 0
223 7 1 108 29 1.22465e-16 0 0 0
66 3 2 0 34.4 0 0 0 0
70 3 2 6.4 34.4 0 0 0 0
74 3 2 12.8 34.4 0 0 0 0
78 3 2 19.2 34.4 0 0 0 0
82 3 3 25.6 34.4 0 0 0 0
86 3 3 32 34.4 0 0 0 0
90 3 3 38.4 34.4 0 0 0 0
94 3 3 44.8 34.4 0 0 0 0
194 7 2 60 34.4 0 0 0 0
198 7 2 66.4 34.4 0 0 0 0
202 7 2 72.8 34.4 0 0 0 0
206 7 2 79.2 34.4 0 0 0 0
210 7 3 85.6 34.4 0 0 0 0
214 7 3 92 34.4 0 0 0 0
218 7 3 98.4 34.4 0 0 0 0
222 7 3 104.8 34.4 0 0 0 0
3 1 1 3.2 59 1.22465e-16 0 -1 0
4 1 2 3.2 55.6 5.38845e-16 0 -1 0
7 1 1 9.6 59 1.22465e-16 0 -1 0
8 1 2 9.6 55.6 5.38845e-16 0 -1 0
11 1 1 16 59 1.22465e-16 0 -1 0
12 1 2 16 55.6 5.38845e-16 0 -1 0
15 1 1 22.4 59 1.22465e-16 0 -1 0
16 1 2 22.4 55.6 5.38845e-16 0 -1 0
19 1 1 28.8 59 1.22465e-16 0 -1 0
20 1 3 28.8 55.6 5.38845e-16 0 -1 0
23 1 1 35.2 59 1.22465e-16 0 -1 0
24 1 3 35.2 55.6 5.38845e-16 0 -1 0
27 1 1 41.6 59 1.22465e-16 0 -1 0
28 1 3 41.6 55.6 5.38845e-16 0 -1 0
31 1 1 48 59 1.22465e-16 0 -1 0
32 1 3 48 55.6 5.38845e-16 0 -1 0
131 5 1 63.2 59 1.22465e-16 0 -1 0
132 5 2 63.2 55.6 5.38845e-16 0 -1 0
135 5 1 69.6 59 1.22465e-16 0 -1 0
136 5 2 69.6 55.6 5.38845e-16 0 -1 0
139 5 1 76 59 1.22465e-16 0 -1 0
140 5 2 76 55.6 5.38845e-16 0 -1 0
143 5 1 82.4 59 1.22465e-16 0 -1 0
144 5 2 82.4 55.6 5.38845e-16 0 -1 0
147 5 1 88.8 59 1.22465e-16 0 -1 0
148 5 3 88.8 55.6 5.38845e-16 0 -1 0
151 5 1 95.2 59 1.22465e-16 0 -1 0
152 5 3 95.2 55.6 5.38845e-16 0 -1 0
155 5 1 101.6 59 1.22465e-16 0 -1 0
156 5 3 101.6 55.6 5.38845e-16 0 -1 0
159 5 1 108 59 1.22465e-16 0 -1 0
160 5 3 108 55.6 5.38845e-16 0 -1 0
33 2 1 0 1 30 0 0 0
34 2 2 0 4.4 30 0 0 0
37 2 1 6.4 1 30 0 0 0
38 2 2 6.4 4.4 30 0 0 0
41 2 1 12.8 1 30 0 0 0
42 2 2 12.8 4.4 30 0 0 0
45 2 1 19.2 1 30 0 0 0
46 2 2 19.2 4.4 30 0 0 0
49 2 1 25.6 1 30 0 0 0
50 2 3 25.6 4.4 30 0 0 0
53 2 1 32 1 30 0 0 0
54 2 3 32 4.4 30 0 0 0
57 2 1 38.4 1 30 0 0 0
58 2 3 38.4 4.4 30 0 0 0
61 2 1 44.8 1 30 0 0 0
62 2 3 44.8 4.4 30 0 0 0
161 6 1 60 1 30 0 0 0
162 6 2 60 4.4 30 0 0 0
165 6 1 66.4 1 30 0 0 0
166 6 2 66.4 4.4 30 0 0 0
169 6 1 72.8 1 30 0 0 0
170 6 2 72.8 4.4 30 0 0 0
173 6 1 79.2 1 30 0 0 0
174 6 2 79.2 4.4 30 0 0 0
177 6 1 85.6 1 30 0 0 0
178 6 3 85.6 4.4 30 0 0 0
181 6 1 92 1 30 0 0 0
182 6 3 92 4.4 30 0 0 0
185 6 1 98.4 1 30 0 0 0
186 6 3 98.4 4.4 30 0 0 0
189 6 1 104.8 1 30 0 0 0
190 6 3 104.8 4.4 30 0 0 0
100 4 2 3.2 25.6 30 0 0 0
104 4 2 9.6 25.6 30 0 0 0
108 4 2 16 25.6 30 0 0 0
112 4 2 22.4 25.6 30 0 0 0
116 4 3 28.8 25.6 30 0 0 0
120 4 3 35.2 25.6 30 0 0 0
124 4 3 41.6 25.6 30 0 0 0
128 4 3 48 25.6 30 0 0 0
228 8 2 63.2 25.6 30 0 0 0
232 8 2 69.6 25.6 30 0 0 0
236 8 2 76 25.6 30 0 0 0
240 8 2 82.4 25.6 30 0 0 0
244 8 3 88.8 25.6 30 0 0 0
248 8 3 95.2 25.6 30 0 0 0
252 8 3 101.6 25.6 30 0 0 0
256 8 3 108 25.6 30 0 0 0
97 4 1 0 31 30 0 0 0
99 4 1 3.2 29 30 0 0 0
101 4 1 6.4 31 30 0 0 0
103 4 1 9.6 29 30 0 0 0
105 4 1 12.8 31 30 0 0 0
107 4 1 16 29 30 0 0 0
109 4 1 19.2 31 30 0 0 0
111 4 1 22.4 29 30 0 0 0
113 4 1 25.6 31 30 0 0 0
115 4 1 28.8 29 30 0 0 0
117 4 1 32 31 30 0 0 0
119 4 1 35.2 29 30 0 0 0
121 4 1 38.4 31 30 0 0 0
123 4 1 41.6 29 30 0 0 0
125 4 1 44.8 31 30 0 0 0
127 4 1 48 29 30 0 0 0
225 8 1 60 31 30 0 0 0
227 8 1 63.2 29 30 0 0 0
229 8 1 66.4 31 30 0 0 0
231 8 1 69.6 29 30 0 0 0
233 8 1 72.8 31 30 0 0 0
235 8 1 76 29 30 0 0 0
237 8 1 79.2 31 30 0 0 0
239 8 1 82.4 29 30 0 0 0
241 8 1 85.6 31 30 0 0 0
243 8 1 88.8 29 30 0 0 0
245 8 1 92 31 30 0 0 0
247 8 1 95.2 29 30 0 0 0
249 8 1 98.4 31 30 0 0 0
251 8 1 101.6 29 30 0 0 0
253 8 1 104.8 31 30 0 0 0
255 8 1 108 29 30 0 0 0
98 4 2 0 34.4 30 0 0 0
102 4 2 6.4 34.4 30 0 0 0
106 4 2 12.8 34.4 30 0 0 0
110 4 2 19.2 34.4 30 0 0 0
114 4 3 25.6 34.4 30 0 0 0
118 4 3 32 34.4 30 0 0 0
122 4 3 38.4 34.4 30 0 0 0
126 4 3 44.8 34.4 30 0 0 0
226 8 2 60 34.4 30 0 0 0
230 8 2 66.4 34.4 30 0 0 0
234 8 2 72.8 34.4 30 0 0 0
238 8 2 79.2 34.4 30 0 0 0
242 8 3 85.6 34.4 30 0 0 0
246 8 3 92 34.4 30 0 0 0
250 8 3 98.4 34.4 30 0 0 0
254 8 3 104.8 34.4 30 0 0 0
35 2 1 3.2 59 30 0 -1 0
36 2 2 3.2 55.6 30 0 -1 0
39 2 1 9.6 59 30 0 -1 0
40 2 2 9.6 55.6 30 0 -1 0
43 2 1 16 59 30 0 -1 0
44 2 2 16 55.6 30 0 -1 0
47 2 1 22.4 59 30 0 -1 0
48 2 2 22.4 55.6 30 0 -1 0
51 2 1 28.8 59 30 0 -1 0
52 2 3 28.8 55.6 30 0 -1 0
55 2 1 35.2 59 30 0 -1 0
56 2 3 35.2 55.6 30 0 -1 0
59 2 1 41.6 59 30 0 -1 0
60 2 3 41.6 55.6 30 0 -1 0
63 2 1 48 59 30 0 -1 0
64 2 3 48 55.6 30 0 -1 0
163 6 1 63.2 59 30 0 -1 0
164 6 2 63.2 55.6 30 0 -1 0
167 6 1 69.6 59 30 0 -1 0
168 6 2 69.6 55.6 30 0 -1 0
171 6 1 76 59 30 0 -1 0
172 6 2 76 55.6 30 0 -1 0
175 6 1 82.4 59 30 0 -1 0
176 6 2 82.4 55.6 30 0 -1 0
179 6 1 88.8 59 30 0 -1 0
180 6 3 88.8 55.6 30 0 -1 0
183 6 1 95.2 59 30 0 -1 0
184 6 3 95.2 55.6 30 0 -1 0
187 6 1 101.6 59 30 0 -1 0
188 6 3 101.6 55.6 30 0 -1 0
191 6 1 108 59 30 0 -1 0
192 6 3 108 55.6 30 0 -1 0
ITEM: TIMESTEP
5000
ITEM: NUMBER OF ATOMS
256
ITEM: BOX BOUNDS pp pp pp
0.0000000000000000e+00 1.2000000000000000e+02
0.0000000000000000e+00 6.0000000000000000e+01
0.0000000000000000e+00 6.0000000000000000e+01
ITEM: ATOMS id mol type x y z ix iy iz
9 1 1 20.0868 4.12796 1.53493 0 0 0
10 1 2 19.5748 4.82937 4.69927 0 0 0
14 1 2 26.8025 5.00362 3.8073 0 0 0
13 1 1 26.2077 2.91573 1.18992 0 0 0
17 1 1 31.6887 0.915845 2.31516 0 0 0
18 1 3 32.4721 3.39084 4.58531 0 0 0
22 1 3 35.9913 58.3401 8.17202 0 -1 0
6 1 2 14.2354 8.90393 2.53958 0 0 0
68 3 2 6.94057 24.354 7.99902 0 0 0
72 3 2 13.033 24.2913 4.96726 0 0 0
92 3 3 38.5477 25.5686 0.140828 0 0 0
96 3 3 41.9698 22.9113 54.773 0 0 -1
200 7 2 72.0021 28.8093 8.02564 0 0 0
220 7 3 95.7003 23.0937 2.99084 0 0 0
216 7 3 93.4392 26.3393 56.8426 0 0 -1
221 7 1 101.222 25.6423 2.07545 0 0 0
67 3 1 6.11466 27.1545 6.13692 0 0 0
65 3 1 3.0418 29.1113 6.23606 0 0 0
66 3 2 0.168084 27.8566 4.86967 0 0 0
69 3 1 8.02331 27.5846 3.04425 0 0 0
70 3 2 6.38963 28.2652 60.1471 0 0 -1
71 3 1 11.7344 26.9215 3.15016 0 0 0
76 3 2 18.0049 26.7575 4.95121 0 0 0
75 3 1 17.0952 28.6235 2.32935 0 0 0
77 3 1 19.472 31.0626 0.900532 0 0 0
79 3 1 23.0205 30.5168 1.80308 0 0 0
81 3 1 25.6662 32.9661 1.16618 0 0 0
88 3 3 35.7335 29.4326 4.68298 0 0 0
83 3 1 28.7289 32.5892 3.23839 0 0 0
85 3 1 31.9038 33.3983 1.38191 0 0 0
87 3 1 34.752 31.025 1.63627 0 0 0
89 3 1 36.942 31.3104 58.7559 0 0 -1
196 7 2 66.0339 26.9348 5.4518 0 0 0
193 7 1 62.1057 31.7443 7.75018 0 0 0
195 7 1 65.4014 30.3699 6.58955 0 0 0
197 7 1 67.7632 33.2713 6.71491 0 0 0
199 7 1 71.4255 32.0444 6.69278 0 0 0
204 7 2 76.3565 28.514 3.52058 0 0 0
201 7 1 74.0819 33.9588 4.90887 0 0 0
203 7 1 76.8769 31.9545 3.8142 0 0 0
205 7 1 79.2334 33.7581 1.83001 0 0 0
207 7 1 82.2533 31.6394 0.292335 0 0 0
208 7 2 81.9274 28.3799 59.71 0 0 -1
209 7 1 85.5864 33.3329 59.9096 0 0 -1
219 7 1 97.6077 25.8811 2.79335 0 0 0
217 7 1 96.306 29.2587 1.68361 0 0 0
222 7 3 103.151 28.4276 2.22759 0 0 0
86 3 3 31.8579 35.9195 59.1153 0 0 -1
194 7 2 61.147 35.0061 8.4968 0 0 0
206 7 2 79.9282 37.1628 2.2795 0 0 0
210 7 3 85.9823 36.5689 58.774 0 0 -1
24 1 3 38.4714 53.7347 0.642319 0 -1 0
136 5 2 68.3389 52.8503 4.55264 0 -1 0
140 5 2 74.8349 52.1087 4.78521 0 -1 0
148 5 3 86.2027 48.2638 0.719638 0 -1 0
156 5 3 97.4703 53.237 5.41832 0 -1 0
16 1 2 27.6761 57.6974 58.9035 0 -1 -1
15 1 1 28.7774 0.591973 0.150544 0 0 0
19 1 1 33.2003 57.6783 2.60253 0 -1 0
20 1 3 31.7116 54.8722 0.929873 0 -1 0
23 1 1 38.717 55.1489 3.49965 0 -1 0
21 1 1 36.1965 57.2997 4.87544 0 -1 0
28 1 3 45.0302 54.1318 59.9665 0 -1 -1
25 1 1 41.8706 54.8644 5.3001 0 -1 0
27 1 1 44.7452 54.4843 3.33132 0 -1 0
31 1 1 50.7697 53.6844 4.04813 0 -1 0
32 1 3 51.9165 54.4669 0.950901 0 -1 0
129 5 1 60.783 59.9102 4.26726 0 -1 0
131 5 1 63.3623 57.2702 4.51469 0 -1 0
132 5 2 62.8742 54.5115 6.44398 0 -1 0
133 5 1 66.6114 58.3816 3.25538 0 -1 0
138 5 2 72.3265 59.3301 58.8711 0 -1 -1
137 5 1 72.1759 56.6737 1.27603 0 -1 0
135 5 1 69.0292 55.6621 2.62229 0 -1 0
139 5 1 74.8758 55.1716 3.04839 0 -1 0
146 5 3 82.0783 55.4572 56.4049 0 -1 -1
145 5 1 82.7064 53.2493 58.9847 0 -1 -1
151 5 1 91.9173 52.8396 0.711608 0 -1 0
152 5 3 92.1222 50.7663 3.24491 0 -1 0
155 5 1 97.3757 55.3209 2.62263 0 -1 0
159 5 1 97.0077 0.414304 6.37154 0 0 0
157 5 1 98.1216 59.0121 3.15906 0 -1 0
80 3 2 23.3343 28.8634 4.61343 0 0 0
84 3 3 28.6529 30.7092 6.04797 0 0 0
202 7 2 74.4598 37.2883 4.77229 0 0 0
198 7 2 66.7457 36.387 7.51187 0 0 0
26 1 3 41.9569 55.7754 8.53522 0 -1 0
30 1 3 47.2322 52.1401 8.73706 0 -1 0
29 1 1 47.5964 53.6684 5.65658 0 -1 0
160 5 3 95.8938 58.6714 9.05825 0 -1 0
191 6 1 106.073 2.07046 15.789 0 0 0
184 6 3 97.6882 58.8769 17.7796 0 -1 0
192 6 3 102.834 2.61236 14.5439 0 0 0
38 2 2 10.2501 59.7253 24.4 0 -1 0
161 6 1 69.9586 4.41053 25.7147 0 0 0
181 6 1 97.0495 59.0538 24.0094 0 -1 0
182 6 3 98.4584 0.0314334 26.9338 0 0 0
190 6 3 109.58 58.8148 20.0833 0 -1 0
162 6 2 68.5418 7.53243 25.8561 0 0 0
33 2 1 7.39057 54.1627 28.122 0 -1 0
34 2 2 7.15728 53.4529 24.7186 0 -1 0
42 2 2 18.2412 58.2281 23.7143 0 -1 0
64 2 3 48.2346 0.814525 28.9648 0 0 0
172 6 2 83.1554 59.9019 28.207 0 -1 0
179 6 1 93.3978 59.5216 23.2749 0 -1 0
176 6 2 86.996 0.545321 21.2438 0 0 0
180 6 3 91.9563 57.7421 20.5741 0 -1 0
183 6 1 99.228 58.8814 20.9247 0 -1 0
185 6 1 102.759 57.63 21.3525 0 -1 0
189 6 1 107.264 58.8962 17.4479 0 -1 0
187 6 1 104.386 57.0092 17.9975 0 -1 0
188 6 3 102.873 55.3141 15.422 0 -1 0
41 2 1 17.6171 58.3394 27.1842 0 -1 0
46 2 2 24.5233 59.5515 25.5342 0 -1 0
49 2 1 29.488 1.05232 30.8714 0 0 0
50 2 3 29.9409 3.33119 28.3851 0 0 0
62 2 3 39.6859 5.00738 28.0212 0 0 0
54 2 3 34.2111 6.50537 32.186 0 0 0
63 2 1 45.2177 1.61607 27.5445 0 0 0
61 2 1 42.5885 3.59034 29.3715 0 0 0
59 2 1 42.4506 2.58459 32.9986 0 0 0
163 6 1 71.4555 2.12888 28.3105 0 0 0
164 6 2 71.301 58.5579 27.9535 0 -1 0
165 6 1 74.4198 3.74012 29.1743 0 0 0
167 6 1 77.1143 3.32564 26.3773 0 0 0
169 6 1 80.2815 5.24194 27.2543 0 0 0
168 6 2 76.6974 0.633032 24.4057 0 0 0
171 6 1 83.2849 3.16034 27.2386 0 0 0
173 6 1 86.0874 4.92573 25.8235 0 0 0
174 6 2 87.1577 7.87111 26.8319 0 0 0
175 6 1 88.082 2.71576 23.519 0 0 0
178 6 3 93.0624 4.28325 26.9895 0 0 0
177 6 1 91.6712 2.45093 24.5175 0 0 0
166 6 2 74.1061 6.64035 30.7322 0 0 0
170 6 2 80.4717 8.20169 28.7124 0 0 0
240 8 2 83.8195 30.8015 32.5558 0 0 0
114 4 3 25.7518 29.8567 33.6534 0 0 0
118 4 3 31.2383 31.7581 30.4262 0 0 0
122 4 3 37.4524 34.1054 29.3757 0 0 0
117 4 1 32.9734 31.016 33.4109 0 0 0
119 4 1 36.4782 29.5157 33.7459 0 0 0
121 4 1 38.6418 31.6784 31.5665 0 0 0
123 4 1 41.9186 32.055 32.9759 0 0 0
128 4 3 48.0247 28.7315 33.244 0 0 0
127 4 1 47.5735 31.6638 31.5754 0 0 0
232 8 2 76.005 38.9644 32.0813 0 0 0
231 8 1 73.3685 37.1188 33.0072 0 0 0
236 8 2 77.8782 31.9515 31.5388 0 0 0
235 8 1 76.8145 32.4471 34.6775 0 0 0
125 4 1 44.3754 32.7222 30.4474 0 0 0
126 4 3 44.2364 34.8476 27.9917 0 0 0
225 8 1 65.0374 39.7634 31.8271 0 0 0
226 8 2 63.5437 37.1035 33.5249 0 0 0
228 8 2 70.0653 42.9177 30.3034 0 0 0
227 8 1 68.6678 39.8814 30.6854 0 0 0
229 8 1 70.3689 36.6416 30.6878 0 0 0
37 2 1 11.6272 58.7538 27.306 0 -1 0
35 2 1 9.9659 56.3464 29.6807 0 -1 0
36 2 2 10.4609 56.5123 33.1605 0 -1 0
39 2 1 14.6919 -0.0878554 28.9047 0 0 0
43 2 1 20.4276 58.6481 29.7012 0 -1 0
40 2 2 14.9439 1.78932 31.8726 0 0 0
45 2 1 23.8869 59.0922 28.7006 0 -1 0
47 2 1 26.4732 59.0646 31.2759 0 -1 0
60 2 3 44.2002 60.0091 34.486 0 -1 0
186 6 3 104.47 57.8726 24.1633 0 -1 0
51 2 1 31.1837 1.31711 33.9971 0 0 0
53 2 1 34.0488 3.44614 33.9554 0 0 0
55 2 1 37.0162 2.04194 35.3997 0 0 0
57 2 1 39.7569 4.25656 34.5316 0 0 0
58 2 3 40.0916 7.51167 35.1653 0 0 0
108 4 2 23.9977 22.799 44.8398 0 0 0
244 8 3 88.1513 29.6199 33.4917 0 0 0
107 4 1 22.8928 25.5733 43.2471 0 0 0
112 4 2 29.62 27.6867 41.5712 0 0 0
109 4 1 23.6931 26.1344 39.6708 0 0 0
111 4 1 27.1956 27.4195 39.3076 0 0 0
110 4 2 21.645 26.2611 36.9422 0 0 0
113 4 1 27.6003 29.7451 36.4873 0 0 0
115 4 1 31.2341 30.6816 36.8539 0 0 0
116 4 3 32.8825 30.0537 39.8354 0 0 0
120 4 3 37.6126 27.3235 36.1451 0 0 0
124 4 3 42.4217 31.8656 36.4738 0 0 0
234 8 2 71.56 32.9484 37.5592 0 0 0
233 8 1 73.8251 34.3203 35.5559 0 0 0
237 8 1 79.5862 32.7225 37.1143 0 0 0
238 8 2 79.0079 33.685 40.4347 0 0 0
239 8 1 82.9984 32.1805 35.5456 0 0 0
241 8 1 85.5062 31.8839 38.2159 0 0 0
243 8 1 88.114 29.8483 36.8385 0 0 0
245 8 1 91.1898 30.0633 38.8542 0 0 0
247 8 1 93.9366 31.8472 37.3109 0 0 0
248 8 3 94.828 30.9855 34.3238 0 0 0
252 8 3 101.123 31.7685 37.872 0 0 0
251 8 1 99.3658 34.4194 39.1351 0 0 0
230 8 2 68.3971 33.904 31.1736 0 0 0
246 8 3 91.191 29.5299 42.2436 0 0 0
250 8 3 94.6069 34.8037 42.7335 0 0 0
249 8 1 95.7413 34.1491 39.6684 0 0 0
253 8 1 100.422 37.0822 41.6216 0 0 0
254 8 3 99.2216 40.0454 41.5625 0 0 0
44 2 2 19.8905 59.7908 32.7655 0 -1 0
48 2 2 26.1583 57.7912 34.387 0 -1 0
52 2 3 30.5832 59.1414 36.6217 0 -1 0
56 2 3 37.4434 58.8537 35.1266 0 -1 0
104 4 2 19.2377 25.2483 49.6971 0 0 0
103 4 1 17.7558 26.2961 46.9965 0 0 0
106 4 2 18.5461 29.1205 41.7299 0 0 0
105 4 1 19.5685 26.7669 43.88 0 0 0
101 4 1 14.7624 28.2005 46.8909 0 0 0
242 8 3 85.0781 33.2927 41.2142 0 0 0
256 8 3 100.393 32.2713 45.5766 0 0 0
255 8 1 101.143 35.5527 44.7991 0 0 0
99 4 1 11.81 26.376 48.6279 0 0 0
100 4 2 12.4174 23.5514 50.5336 0 0 0
98 4 2 8.16564 30.0413 45.4722 0 0 0
97 4 1 8.5579 27.111 46.8837 0 0 0
102 4 2 14.1916 30.1093 44.241 0 0 0
5 1 1 14.639 6.08865 0.326154 0 0 0
3 1 1 11.8465 4.12919 58.8318 0 0 -1
4 1 2 12.2569 1.04476 57.317 0 0 -1
7 1 1 17.8768 5.30274 58.894 0 0 -1
11 1 1 22.8364 2.07041 60.0144 0 0 -1
12 1 2 22.171 59.7842 57.5096 0 -1 -1
130 5 2 60.7669 2.59909 1.97916 0 0 0
158 5 3 100.535 0.44254 1.28142 0 0 0
1 1 1 8.93305 6.4997 58.222 0 0 -1
2 1 2 9.22718 9.5794 58.658 0 0 -1
91 3 1 38.1978 28.1389 57.8178 0 0 -1
95 3 1 40.6326 25.453 52.9889 0 0 -1
93 3 1 37.778 27.5797 54.2336 0 0 -1
224 7 3 100.249 20.1809 59.4184 0 0 -1
223 7 1 101.979 22.0647 1.58558 0 0 0
73 3 1 13.6183 29.5902 1.56154 0 0 0
74 3 2 12.7587 30.7864 58.5073 0 0 -1
90 3 3 38.1799 34.4297 57.9499 0 0 -1
94 3 3 36.6901 30.0762 52.1028 0 0 -1
213 7 1 91.2524 31.8287 58.868 0 0 -1
212 7 3 86.6011 27.5243 57.4008 0 0 -1
211 7 1 87.8621 30.779 58.3026 0 0 -1
215 7 1 93.6648 28.9028 59.088 0 0 -1
218 7 3 97.7685 32.4039 2.49602 0 0 0
78 3 2 18.3751 32.6867 58.0496 0 0 -1
82 3 3 24.5748 35.7926 59.6451 0 0 -1
214 7 3 92.299 35.0989 59.0366 0 0 -1
144 5 2 79.975 51.031 4.11176 0 -1 0
8 1 2 18.3023 4.07322 55.7633 0 0 -1
134 5 2 66.8282 1.05294 1.25469 0 0 0
142 5 2 78.0744 57.309 58.632 0 -1 -1
141 5 1 78.1391 56.1755 1.6598 0 -1 0
143 5 1 80.5616 53.509 2.05519 0 -1 0
147 5 1 85.8337 51.5073 59.8977 0 -1 -1
149 5 1 88.9091 53.3163 58.8047 0 -1 -1
150 5 3 88.7033 55.7041 56.5242 0 -1 -1
154 5 3 95.7087 55.7333 56.4941 0 -1 -1
153 5 1 95.1197 54.5192 59.7387 0 -1 -1
ITEM: TIMESTEP
10000
ITEM: NUMBER OF ATOMS
256
ITEM: BOX BOUNDS pp pp pp
0.0000000000000000e+00 1.2000000000000000e+02
0.0000000000000000e+00 6.0000000000000000e+01
0.0000000000000000e+00 6.0000000000000000e+01
ITEM: ATOMS id mol type x y z ix iy iz
2 1 2 7.05411 5.47272 4.30839 0 0 0
1 1 1 7.65631 3.56047 1.5754 0 0 0
5 1 1 13.8891 4.11471 2.5301 0 0 0
7 1 1 16.9617 3.80089 0.328661 0 0 0
10 1 2 20.3678 3.26649 4.97859 0 0 0
9 1 1 20.0631 2.54124 1.85205 0 0 0
14 1 2 25.5411 0.157968 5.30084 0 0 0
13 1 1 26.0794 0.72319 1.96821 0 0 0
134 5 2 81.0873 6.96807 10.6157 0 0 0
138 5 2 79.7253 3.49409 5.0909 0 0 0
137 5 1 81.7679 0.960562 6.1608 0 0 0
192 6 3 102.819 58.7677 0.483423 0 -1 0
3 1 1 11.1185 2.61989 0.52703 0 0 0
6 1 2 13.8928 3.84289 6.02485 0 0 0
98 4 2 19.7935 28.2739 3.82734 0 0 1
97 4 1 22.5281 30.0588 4.59561 0 0 1
196 7 2 63.7535 25.3858 6.32264 0 0 0
218 7 3 90.4459 25.726 1.11384 0 0 0
70 3 2 16.8673 23.0742 5.18658 0 0 0
74 3 2 17.6762 28.8878 2.97862 0 0 0
73 3 1 18.6862 30.0682 5.80065 0 0 0
77 3 1 23.9007 31.7615 3.4405 0 0 0
78 3 2 23.8427 28.8188 1.83758 0 0 0
79 3 1 26.2471 34.5583 3.01252 0 0 0
75 3 1 21.4169 32.471 6.22352 0 0 0
99 4 1 26.035 29.3028 3.60412 0 0 1
100 4 2 28.1223 27.4829 5.89092 0 0 1
81 3 1 29.5503 33.2568 1.87046 0 0 0
82 3 3 29.7744 29.8421 2.84523 0 0 0
88 3 3 35.9146 30.9583 3.25675 0 0 0
200 7 2 66.413 31.7141 3.82148 0 0 0
199 7 1 67.9698 30.7106 6.45269 0 0 0
205 7 1 75.902 32.4278 6.92149 0 0 0
209 7 1 81.2715 30.115 3.93484 0 0 0
206 7 2 77.0097 31.1181 9.76223 0 0 0
207 7 1 78.2537 32.3727 3.93096 0 0 0
210 7 3 81.6062 27.6854 5.92729 0 0 0
214 7 3 88.0837 31.2031 5.87413 0 0 0
213 7 1 87.3454 31.9764 3.05484 0 0 0
211 7 1 83.936 31.3268 1.56605 0 0 0
217 7 1 89.6549 28.3943 59.1011 0 0 -1
215 7 1 89.3361 31.8359 0.162361 0 0 0
83 3 1 32.2183 35.8131 2.24519 0 0 0
84 3 3 31.2437 37.9002 4.54445 0 0 0
85 3 1 35.2181 35.9358 0.0693674 0 0 0
87 3 1 37.2518 33.2177 0.94616 0 0 0
203 7 1 72.7129 34.2904 5.8346 0 0 0
201 7 1 70.0363 33.1313 7.89132 0 0 0
204 7 2 72.452 36.9861 3.70279 0 0 0
23 1 1 33.9932 48.5068 0.343813 0 -1 0
25 1 1 34.6796 46.0506 3.03448 0 -1 0
26 1 3 32.2681 44.6098 4.83954 0 -1 0
27 1 1 37.7788 47.6864 4.31512 0 -1 0
28 1 3 40.3321 48.1701 2.16895 0 -1 0
146 5 3 83.5231 49.4743 6.25189 0 -1 0
153 5 1 92.4985 47.4509 5.90658 0 -1 0
154 5 3 89.9918 45.655 4.70076 0 -1 0
158 5 3 88.9024 51.7255 0.799876 0 -1 0
156 5 3 97.7008 50.8508 4.53267 0 -1 0
155 5 1 94.1443 50.4429 4.32609 0 -1 0
157 5 1 91.6547 52.6105 2.43878 0 -1 0
17 1 1 30.5123 56.4837 2.68348 0 -1 0
18 1 3 28.7099 55.5571 5.34326 0 -1 0
19 1 1 32.4528 54.3064 0.405623 0 -1 0
21 1 1 34.4384 51.709 2.12173 0 -1 0
22 1 3 34.6082 51.7907 5.34527 0 -1 0
141 5 1 83.2994 56.2791 2.59504 0 -1 0
142 5 2 80.4766 54.9763 1.31419 0 -1 0
139 5 1 84.4588 59.5956 3.79164 0 -1 0
143 5 1 86.2812 54.0637 3.0399 0 -1 0
145 5 1 86.2445 51.3778 5.58653 0 -1 0
144 5 2 88.9276 55.7729 3.84316 0 -1 0
160 5 3 90.0983 58.9996 0.70095 0 -1 0
159 5 1 91.9393 56.2959 2.34364 0 -1 0
188 6 3 95.9521 56.791 2.42987 0 -1 0
129 5 1 76.0794 5.84587 14.1174 0 0 0
130 5 2 74.9069 7.41444 11.2382 0 0 0
161 6 1 77.514 -0.270853 12.389 0 0 0
133 5 1 81.1928 3.80228 11.3911 0 0 0
131 5 1 78.4393 2.95068 13.626 0 0 0
135 5 1 82.59 0.635443 9.73665 0 0 0
162 6 2 80.1496 58.4128 13.9732 0 -1 0
136 5 2 82.5834 57.5495 11.2682 0 -1 0
140 5 2 87.7316 59.6516 4.58233 0 -1 0
184 6 3 91.0585 0.15701 7.25404 0 0 0
191 6 1 101.84 0.751882 3.11463 0 0 0
66 3 2 16.9355 17.538 8.0412 0 0 0
65 3 1 15.1119 19.0025 10.3989 0 0 0
67 3 1 15.1692 22.781 10.7567 0 0 0
72 3 2 17.0569 29.6622 11.8747 0 0 0
195 7 1 66.9038 24.9088 7.38819 0 0 0
193 7 1 67.5463 22.5533 9.86318 0 0 0
69 3 1 17.172 24.5181 8.19324 0 0 0
71 3 1 17.2533 28.2314 8.75708 0 0 0
76 3 2 22.3516 34.3544 9.10082 0 0 0
197 7 1 69.5238 27.506 6.7471 0 0 0
198 7 2 72.9108 27.1235 7.59722 0 0 0
80 3 2 25.6866 37.0232 5.15868 0 0 0
202 7 2 70.262 33.6946 11.2987 0 0 0
30 1 3 35.7691 46.748 10.1321 0 -1 0
29 1 1 37.2805 48.65 8.00567 0 -1 0
31 1 1 40.0025 50.7424 8.85582 0 -1 0
32 1 3 43.2671 49.742 8.25222 0 -1 0
172 6 2 72.9792 52.718 11.1023 0 -1 0
150 5 3 86.8713 47.3624 11.7613 0 -1 0
151 5 1 92.7225 47.3477 9.56161 0 -1 0
149 5 1 89.39 48.868 10.2704 0 -1 0
152 5 3 95.6001 48.4689 10.7174 0 -1 0
173 6 1 78.6252 54.5708 10.9984 0 -1 0
176 6 2 79.5684 50.8157 6.03 0 -1 0
175 6 1 80.7205 52.6445 8.68049 0 -1 0
177 6 1 83.8484 52.6031 10.4959 0 -1 0
148 5 3 91.6682 53.5015 6.55833 0 -1 0
147 5 1 88.8651 51.8871 8.12628 0 -1 0
180 6 3 85.0697 56.5282 6.34829 0 -1 0
179 6 1 86.3659 54.2609 8.42547 0 -1 0
181 6 1 89.5737 54.8802 10.1982 0 -1 0
183 6 1 91.9716 57.2187 8.43492 0 -1 0
185 6 1 95.4741 56.0795 8.34675 0 -1 0
187 6 1 97.2281 57.0835 5.42305 0 -1 0
186 6 3 96.7651 55.1771 11.4626 0 -1 0
189 6 1 100.194 59.1048 6.17719 0 -1 0
190 6 3 101.75 59.2603 9.22906 0 -1 0
163 6 1 74.2493 -0.0742361 13.9523 0 0 0
132 5 2 77.9849 59.3846 14.6403 0 -1 0
68 3 2 13.5585 24.6226 13.2585 0 0 0
194 7 2 70.2163 21.5605 11.82 0 0 0
164 6 2 71.7511 59.4323 11.9691 0 -1 0
168 6 2 70.8381 54.5807 14.8212 0 -1 0
167 6 1 73.2704 55.2374 16.9714 0 -1 0
165 6 1 74.3789 58.6988 17.3112 0 -1 0
170 6 2 78.8087 52.6802 18.7862 0 -1 0
169 6 1 76.0748 53.2166 16.5516 0 -1 0
171 6 1 75.8601 52.8176 12.8134 0 -1 0
174 6 2 80.9548 56.7617 12.5723 0 -1 0
178 6 3 83.5831 53.3295 13.7523 0 -1 0
182 6 3 90.4889 52.4825 12.6031 0 -1 0
38 2 2 14.0204 59.9826 20.9757 0 -1 0
45 2 1 24.6678 0.405083 25.0883 0 0 0
43 2 1 22.1093 2.70165 26.6707 0 0 0
166 6 2 76.9059 59.8425 19.347 0 -1 0
228 8 2 69.4883 43.864 27.3439 0 0 0
34 2 2 6.81492 58.0914 21.8658 0 -1 0
33 2 1 7.63036 57.7115 25.1538 0 -1 0
35 2 1 11.1799 57.8 26.3784 0 -1 0
37 2 1 13.9728 59.3752 24.4363 0 -1 0
41 2 1 19.1583 2.5236 24.4695 0 0 0
42 2 2 19.5087 2.00744 21.1737 0 0 0
39 2 1 16.4689 1.15274 26.4471 0 0 0
46 2 2 23.7468 57.2712 23.9035 0 -1 0
50 2 3 28.02 54.9277 25.96 0 -1 0
36 2 2 11.889 57.3007 29.7429 0 -1 0
40 2 2 16.0307 1.96607 29.6307 0 0 0
44 2 2 22.9337 5.71367 27.8187 0 0 0
47 2 1 28.1755 1.10831 25.0931 0 0 0
48 2 2 29.9848 3.76596 26.2606 0 0 0
54 2 3 34.3989 3.18181 24.8794 0 0 0
53 2 1 34.6783 1.12469 27.6607 0 0 0
55 2 1 37.9439 0.306663 29.2125 0 0 0
57 2 1 39.6701 3.40551 29.9189 0 0 0
62 2 3 43.0026 58.7838 27.1574 0 -1 0
61 2 1 44.0143 0.00161572 30.1851 0 0 0
59 2 1 42.6122 2.89257 32.1303 0 0 0
58 2 3 39.7164 5.84801 27.5982 0 0 0
230 8 2 74.5068 40.1173 33.1265 0 0 0
226 8 2 67.877 41.0511 36.1133 0 0 0
225 8 1 67.3537 42.3422 32.8706 0 0 0
229 8 1 73.2637 43.0531 32.4805 0 0 0
227 8 1 70.2304 43.0916 30.6897 0 0 0
232 8 2 73.9027 49.2795 32.858 0 0 0
234 8 2 80.2556 43.1563 31.1302 0 0 0
231 8 1 75.3384 46.3053 32.0851 0 0 0
233 8 1 78.7812 45.6824 32.755 0 0 0
51 2 1 31.8807 58.7935 28.6526 0 -1 0
49 2 1 29.6624 57.8897 26.0438 0 -1 0
52 2 3 31.5448 58.7797 32.0594 0 -1 0
56 2 3 38.2017 57.7233 31.5478 0 -1 0
60 2 3 41.6126 2.47337 35.4134 0 0 0
119 4 1 35.2471 25.3609 37.7152 0 0 0
117 4 1 32.2906 26.4468 39.6892 0 0 0
120 4 3 36.1191 21.9248 37.2975 0 0 0
118 4 3 32.1187 29.9366 40.1019 0 0 0
121 4 1 37.5851 28.0281 37.2425 0 0 0
122 4 3 37.0955 30.4817 35.0538 0 0 0
123 4 1 38.4066 28.8683 40.7316 0 0 0
125 4 1 41.8615 30.1526 40.5933 0 0 0
126 4 3 42.6713 32.4677 38.5551 0 0 0
237 8 1 81.2014 43.4091 37.9922 0 0 0
238 8 2 83.3108 41.2694 36.4076 0 0 0
242 8 3 86.5253 42.1811 40.9204 0 0 0
235 8 1 79.5962 46.2774 36.3334 0 0 0
236 8 2 78.6056 49.0073 38.1693 0 0 0
63 2 1 46.8972 58.3462 32.1255 0 -1 0
64 2 3 46.6913 56.585 34.9022 0 -1 0
115 4 1 31.1771 24.0184 41.9488 0 0 0
113 4 1 29.0761 25.4829 44.4172 0 0 0
111 4 1 30.719 24.9393 47.4585 0 0 0
116 4 3 33.5325 22.2219 43.0992 0 0 0
124 4 3 37.1588 28.5114 43.8171 0 0 0
114 4 3 26.2201 27.5565 44.2517 0 0 0
128 4 3 43.8522 30.0482 46.5681 0 0 0
127 4 1 44.0881 28.7201 43.2393 0 0 0
241 8 1 83.5781 42.103 42.8513 0 0 0
239 8 1 80.624 43.1448 41.4876 0 0 0
243 8 1 83.8119 41.9102 46.4378 0 0 0
250 8 3 87.5796 37.556 45.5158 0 0 0
240 8 2 77.5408 43.088 42.9098 0 0 0
246 8 3 88.5973 45.7932 46.4755 0 0 0
245 8 1 86.5678 43.7242 48.2625 0 0 0
107 4 1 29.8226 25.1146 53.2496 0 0 0
108 4 2 33.2258 25.1615 53.5172 0 0 0
112 4 2 33.8444 23.8828 47.5594 0 0 0
96 3 3 32.3984 28.1679 49.5154 0 0 -1
224 7 3 84.394 27.3938 49.6392 0 0 -1
110 4 2 25.2548 26.2739 49.7846 0 0 0
106 4 2 24.6891 27.8622 54.6044 0 0 0
109 4 1 28.1371 24.6087 50.1292 0 0 0
94 3 3 37.3968 33.4064 49.7322 0 0 -1
95 3 1 32.1085 31.1715 50.7846 0 0 -1
93 3 1 35.0359 33.0758 52.2065 0 0 -1
254 8 3 84.0996 33.4381 52.0726 0 0 0
255 8 1 87.2971 30.251 47.7709 0 0 0
256 8 3 89.6301 30.2758 45.5778 0 0 0
253 8 1 87.1197 32.4236 50.8428 0 0 0
244 8 3 82.1872 39.4973 48.3336 0 0 0
249 8 1 88.3902 37.8978 48.8452 0 0 0
251 8 1 89.7922 34.8876 50.4392 0 0 0
247 8 1 87.7299 41.068 50.5655 0 0 0
248 8 3 86.411 41.2413 53.6202 0 0 0
8 1 2 16.648 4.43129 57.0966 0 0 -1
11 1 1 23.1594 2.0201 59.6744 0 0 -1
12 1 2 22.9673 1.97558 56.3234 0 0 -1
15 1 1 28.8325 58.8389 0.342862 0 -1 0
4 1 2 11.4397 1.76288 57.2239 0 0 -1
222 7 3 83.0276 25.4964 58.3919 0 0 -1
221 7 1 84.5421 27.2911 55.9519 0 0 -1
223 7 1 83.1011 28.4382 52.7312 0 0 -1
219 7 1 88.141 28.0783 55.9003 0 0 -1
102 4 2 26.0079 33.3931 58.8838 0 0 0
101 4 1 26.8903 30.4698 0.24746 0 0 1
105 4 1 27.7223 26.8599 55.6097 0 0 0
103 4 1 29.4064 28.4115 58.535 0 0 0
104 4 2 31.8555 27.0876 0.350734 0 0 1
92 3 3 33.3722 28.8862 56.5175 0 0 -1
91 3 1 35.5573 31.1341 55.2385 0 0 -1
212 7 3 82.9914 31.8205 58.3867 0 0 -1
216 7 3 88.9538 33.9586 57.5456 0 0 -1
220 7 3 89.8471 29.3157 53.2398 0 0 -1
86 3 3 35.076 36.7641 56.7287 0 0 -1
89 3 1 38.4267 32.2734 57.2272 0 0 -1
90 3 3 40.8006 33.8769 55.5436 0 0 -1
208 7 2 77.5707 34.2075 1.45055 0 0 0
252 8 3 93.0661 34.6068 50.9469 0 0 0
24 1 3 35.2398 47.84 57.2418 0 -1 -1
16 1 2 30.1588 59.5751 57.2925 0 -1 -1
20 1 3 33.0658 55.7382 57.3028 0 -1 -1
ITEM: TIMESTEP
15000
ITEM: NUMBER OF ATOMS
256
ITEM: BOX BOUNDS pp pp pp
0.0000000000000000e+00 1.2000000000000000e+02
0.0000000000000000e+00 6.0000000000000000e+01
0.0000000000000000e+00 6.0000000000000000e+01
ITEM: ATOMS id mol type x y z ix iy iz
10 1 2 20.1401 59.4539 1.09002 0 -1 0
9 1 1 22.9456 0.0954872 59.3992 0 0 -1
135 5 1 84.8566 0.191269 58.8024 0 0 -1
132 5 2 85.8573 5.68334 2.82427 0 0 0
131 5 1 86.0773 2.52486 4.18711 0 0 0
184 6 3 89.3578 1.37144 0.824091 0 0 0
129 5 1 89.2507 1.90853 5.87419 0 0 0
78 3 2 28.1845 28.0605 3.11525 0 0 0
102 4 2 25.9617 27.0671 1.85022 0 0 1
77 3 1 26.2717 30.3932 4.2263 0 0 0
101 4 1 26.7679 29.1102 59.4317 0 0 0
99 4 1 29.0615 31.6545 0.775089 0 0 1
97 4 1 29.728 30.5522 4.36446 0 0 1
194 7 2 63.7761 32.109 2.15352 0 0 0
193 7 1 62.9924 29.6698 4.44478 0 0 0
195 7 1 64.9143 29.2151 7.61539 0 0 0
201 7 1 74.4102 29.9925 6.62608 0 0 0
197 7 1 68.3906 28.0844 7.12576 0 0 0
198 7 2 68.9689 25.1696 5.43263 0 0 0
203 7 1 76.5147 32.7677 7.24281 0 0 0
205 7 1 80.1986 32.8834 6.08602 0 0 0
206 7 2 82.2089 30.0731 6.10389 0 0 0
202 7 2 75.5141 26.8484 7.06327 0 0 0
222 7 3 81.5345 33.6601 1.53055 0 0 0
214 7 3 89.3192 31.0601 2.14804 0 0 0
100 4 2 31.107 33.8675 58.8848 0 0 0
81 3 1 28.1338 32.8981 59.7846 0 0 -1
79 3 1 26.5907 33.7757 2.73684 0 0 0
83 3 1 31.799 32.6456 0.191285 0 0 0
26 1 3 28.9028 37.3679 0.298305 0 -1 0
25 1 1 31.7741 38.7745 0.629614 0 -1 0
84 3 3 33.3073 32.5605 3.24471 0 0 0
27 1 1 34.1122 37.5678 3.30337 0 -1 0
28 1 3 37.6368 37.8226 3.02374 0 -1 0
196 7 2 63.7574 29.7443 10.8625 0 0 0
207 7 1 81.8452 36.0245 4.99541 0 0 0
209 7 1 85.4896 35.5943 5.60941 0 0 0
211 7 1 87.4067 36.8787 2.60488 0 0 0
223 7 1 78.8578 38.9376 59.7442 0 0 -1
212 7 3 85.8207 39.5574 0.729955 0 0 0
213 7 1 89.3232 34.1617 1.14478 0 0 0
23 1 1 32.5374 42.1578 59.967 0 -1 -1
22 1 3 27.0616 42.8795 3.4101 0 -1 0
21 1 1 30.0466 43.9313 2.06576 0 -1 0
24 1 3 35.8366 42.7979 59.2695 0 -1 -1
32 1 3 35.0369 43.1549 5.68655 0 -1 0
153 5 1 93.0741 47.2164 0.782026 0 -1 0
154 5 3 91.8383 44.1674 0.367975 0 -1 0
17 1 1 27.1344 49.4736 0.856613 0 -1 0
18 1 3 24.2305 48.567 2.52355 0 -1 0
19 1 1 30.1914 47.4007 1.17638 0 -1 0
20 1 3 33.1999 49.0722 1.2887 0 -1 0
150 5 3 88.1809 48.3552 6.55209 0 -1 0
158 5 3 86.832 49.0787 59.8425 0 -1 -1
151 5 1 93.4182 49.1435 3.97144 0 -1 0
147 5 1 89.0529 52.8771 2.60416 0 -1 0
149 5 1 90.245 50.265 5.03376 0 -1 0
152 5 3 96.1445 51.2501 4.33669 0 -1 0
13 1 1 25.8933 55.3725 1.43592 0 -1 0
15 1 1 28.4663 52.9528 0.398042 0 -1 0
16 1 2 31.6082 53.4186 1.66637 0 -1 0
175 6 1 79.6089 58.6626 2.41131 0 -1 0
173 6 1 76.6276 59.6531 4.2741 0 -1 0
146 5 3 82.9693 51.8919 4.05019 0 -1 0
145 5 1 85.3727 52.8514 1.812 0 -1 0
176 6 2 79.704 58.4385 59.0237 0 -1 -1
136 5 2 81.5716 59.2364 57.6455 0 -1 -1
179 6 1 85.2975 55.7868 2.47296 0 -1 0
133 5 1 85.5067 59.5732 2.18195 0 -1 0
177 6 1 82.3319 57.0864 4.13672 0 -1 0
134 5 2 86.7978 56.7485 3.46305 0 -1 0