LAMMPS (22 Jul 2025 - Update 2)
include system.in.init
units           real
atom_style      full
bond_style      harmonic
angle_style     harmonic
dihedral_style  charmm
pair_style      lj/cut 11.0
pair_modify     mix arithmetic
special_bonds   lj 0.0 0.0 0.0
read_data system.data
Reading data file ...
  orthogonal box = (0 0 0) to (120 60 60)
  1 by 1 by 1 MPI processor grid
  reading atoms ...
  256 atoms
  scanning bonds ...
  2 = max bonds/atom
  scanning angles ...
  3 = max angles/atom
  scanning dihedrals ...
  2 = max dihedrals/atom
  orthogonal box = (0 0 0) to (120 60 60)
  1 by 1 by 1 MPI processor grid
  reading bonds ...
  248 bonds
  reading angles ...
  352 angles
  reading dihedrals ...
  224 dihedrals
Finding 1-2 1-3 1-4 neighbors ...
  special bond factors lj:    0        0        0       
  special bond factors coul:  0        0        0       
     3 = max # of 1-2 neighbors
     4 = max # of 1-3 neighbors
     8 = max # of 1-4 neighbors
    11 = max # of special neighbors
  special bonds CPU = 0.000 seconds
  read_data CPU = 0.002 seconds
include system.in.settings
pair_coeff  1  1      0.10 2.0
pair_coeff  2  2      3.00 2.0
pair_coeff  3  3      3.00 6.0
bond_coeff     2   30.0   3.4
bond_coeff     1    30.0   3.7
angle_coeff 1    30.00  114
angle_coeff 2   30.00  123
dihedral_coeff  1    -0.5 1 -180 0.0
dihedral_coeff  2    -1.5 1 -180 0.0

timestep        2.0
dump            1 all custom 5000 traj_nvt.lammpstrj id mol type x y z ix iy iz

fix fxlan all langevin 310.15 310.15 5000.0 48279
fix fxnve all nve

thermo_style    custom step temp pe etotal press vol epair ebond eangle edihed
thermo          1000

run		2000000
Generated 3 of 3 mixed pair_coeff terms from arithmetic mixing rule
Neighbor list info ...
  update: every = 1 steps, delay = 0 steps, check = yes
  max neighbors/atom: 2000, page size: 100000
  master list distance cutoff = 13
  ghost atom cutoff = 13
  binsize = 6.5, bins = 19 10 10
  1 neighbor lists, perpetual/occasional/extra = 1 0 0
  (1) pair lj/cut, perpetual
      attributes: half, newton on
      pair build: half/bin/newton
      stencil: half/bin/3d
      bin: standard
Per MPI rank memory allocation (min/avg/max) = 8.314 | 8.314 | 8.314 Mbytes
   Step          Temp          PotEng         TotEng         Press          Volume         E_pair         E_bond        E_angle        E_dihed    
         0   0             -575.13902     -575.13902     -64.731963      432000        -136.85587      19.497057      6.219794      -464          
      1000   128.89069     -544.50272     -446.53206      0.79186173     432000        -162.55609      28.815564      33.964543     -444.72673    
      2000   183.88888     -519.61719     -379.84204     -8.7815375      432000        -166.45385      41.501204      48.366758     -443.0313     
      3000   234.20602     -477.16812     -299.14659     -6.0081304      432000        -165.88278      57.591614      64.650457     -433.52741    
      4000   244.67988     -459.79974     -273.81695      5.2236411      432000        -167.5401       58.377536      77.499061     -428.13623    
      5000   288.01297     -460.51586     -241.59531      3.33723        432000        -170.5073       67.905609      69.836775     -427.75094    
      6000   304.60264     -439.22971     -207.69924      1.6006189      432000        -184.18855      80.536987      88.640292     -424.21844    
      7000   329.15547     -459.34605     -209.15282      7.4722492      432000        -215.67883      74.392335      108.15359     -426.21315    
      8000   293.20956     -438.72251     -215.85199     -4.9356621      432000        -226.29969      78.933384      119.6097      -410.96589    
      9000   375.35416     -496.52145     -211.21229      9.5271218      432000        -297.52852      84.371187      121.5757      -404.93981    
     10000   413.16996     -533.14778     -219.09459      26.820504      432000        -350.8384       84.166912      131.94825     -398.42455    
     11000   406.55126     -576.59505     -267.57278      12.02788       432000        -407.23449      82.864636      144.93251     -397.15771    
     12000   391.37912     -628.46267     -330.97283     -10.109283      432000        -443.59369      92.438267      120.01864     -397.32588    
     13000   375.47368     -680.24584     -394.84583     -15.914523      432000        -521.24413      96.21468       142.12841     -397.34479    
     14000   391.95526     -711.36254     -413.43478     -0.64319075     432000        -532.54464      89.510592      121.52443     -389.85292    
     15000   356.38014     -746.82087     -475.93399     -11.13702       432000        -573.97043      90.60144       127.91371     -391.3656     
     16000   323.11791     -754.81996     -509.21592     -14.044044      432000        -602.44416      94.588092      132.21801     -379.1819     
     17000   367.40712     -821.74753     -542.47896     -3.112403       432000        -663.9012       79.653029      149.86163     -387.36099    
     18000   362.02451     -856.38546     -581.20825      4.2638206      432000        -703.79857      82.03157       149.07623     -383.69469    
     19000   399.00564     -900.9727      -597.6859      -2.7838556      432000        -776.41502      97.314916      151.4161      -373.2887     
     20000   395.75636     -959.11944     -658.30243      20.256802      432000        -822.69317      81.747336      151.30504     -369.47865    
     21000   357.47304     -993.86293     -722.14533      20.18559       432000        -868.43845      87.087354      152.11117     -364.62301    
     22000   358.30496     -1002.2283     -729.87837     -0.79317808     432000        -887.81989      85.931914      168.77479     -369.11512    
     23000   355.14433     -1033.6453     -763.69778      13.45518       432000        -898.86192      89.378267      146.82079     -370.98245    
     24000   352.99305     -1048.3939     -780.08155     -12.747168      432000        -932.91305      88.43255       172.76326     -376.67665    
     25000   353.74972     -1073.5904     -804.70293      39.357848      432000        -970.27764      103.58274      164.47624     -371.37176    
     26000   356.01254     -1084.6138     -814.00634      48.53888       432000        -986.28824      101.38077      167.60999     -367.31633    
     27000   366.35909     -1089.1587     -810.6868       16.585059      432000        -968.83854      97.497121      146.48694     -364.30427    
     28000   360.07819     -1124.2681     -850.57029     -29.536817      432000        -1031.8831      89.875099      177.74767     -360.00777    
     29000   337.99393     -1135.3946     -878.48323     -3.5416778      432000        -1029.8522      90.25294       167.73159     -363.52698    
     30000   344.51412     -1165.5236     -903.65612      32.085146      432000        -1032.6883      86.239297      152.30604     -371.38058    
     31000   352.69372     -1200.5607     -932.47587      8.061696       432000        -1054.7262      81.787356      148.42939     -376.05124    
     32000   337.24805     -1197.5811     -941.23664      14.726663      432000        -1053.4657      82.725435      146.46679     -373.30762    
     33000   323.50217     -1206.1626     -960.26652      4.2386941      432000        -1053.4131      83.230396      141.75968     -377.73965    
     34000   334.90364     -1198.248      -943.68558      1.5154264      432000        -1082.1927      81.701573      171.62215     -369.3791     
     35000   329.47836     -1211.643      -961.20432      11.54384       432000        -1082.0514      90.421298      152.88765     -372.90048    
     36000   324.66925     -1239.2397     -992.45643      22.035613      432000        -1085.5765      85.331985      138.34004     -377.33518    
     37000   311.87069     -1221.2619     -984.20696     -6.8406996      432000        -1081.2515      78.759571      149.11581     -367.88584    
     38000   300.6458      -1224.2868     -995.76393     -15.386904      432000        -1087.2577      85.380653      145.57766     -367.98743    
     39000   326.42871     -1227.6521     -979.5315      -41.204513      432000        -1096.959       76.922742      162.52661     -370.14249    
     40000   303.7219      -1233.6839     -1002.8229      27.919853      432000        -1108.3704      77.06977       162.69466     -365.07791    
     41000   327.01476     -1262.7559     -1014.1898     -18.224208      432000        -1119.8256      83.379964      138.70046     -365.01078    
     42000   330.72568     -1264.9871     -1013.6004      15.868791      432000        -1131.102       81.795858      153.34563     -369.0266     
     43000   327.49797     -1266.6147     -1017.6814      7.8451145      432000        -1129.2982      83.689506      145.57792     -366.58393    
     44000   332.6955      -1283.609      -1030.7249      13.114342      432000        -1149.6779      89.300686      143.08638     -366.31814    
     45000   311.26826     -1271.558      -1034.9609     -14.231089      432000        -1144.9574      78.829342      167.79452     -373.22444    
     46000   323.49231     -1305.6415     -1059.7529      22.036279      432000        -1177.1128      75.813357      163.91289     -368.25492    
     47000   285.50649     -1283.1748     -1066.1594      43.012838      432000        -1156.8797      86.46906       155.81943     -368.58353    
     48000   296.73519     -1298.106      -1072.5556      38.011823      432000        -1163.277       89.354077      142.16349     -366.34661    
     49000   317.07965     -1301.4765     -1060.4622     -17.054255      432000        -1165.7797      74.13742       159.05484     -368.88904    
     50000   334.7196      -1305.3691     -1050.9465     -23.768375      432000        -1156.7733      76.247071      151.83807     -376.68091    
     51000   290.68345     -1309.4267     -1088.4763      12.210618      432000        -1176.7669      75.880717      167.97476     -376.5153     
     52000   301.24146     -1334.4001     -1105.4245      12.225395      432000        -1200.0382      76.427894      157.58949     -368.37924    
     53000   291.14542     -1333.6277     -1112.3261      16.019039      432000        -1237.7075      106.25509      170.86837     -373.04361    
     54000   303.89434     -1349.2848     -1118.2927     -32.002726      432000        -1227.9042      93.589549      154.8095      -369.77964    
     55000   330.12962     -1371.1467     -1120.213      -0.03413516     432000        -1235.9909      83.259359      142.10503     -360.52023    
     56000   305.39277     -1347.7193     -1115.5882     -7.081399       432000        -1211.2366      76.79315       157.66467     -370.94053    
     57000   299.85214     -1369.1281     -1141.2086      6.6772941      432000        -1240.2886      82.602821      162.1911      -373.6335     
     58000   284.0165      -1368.0318     -1152.149       37.625236      432000        -1209.9777      74.307064      133.58472     -365.94591    
     59000   281.70938     -1341.1436     -1127.0145     -10.673854      432000        -1215.9798      90.226002      152.214       -367.60385    
     60000   302.30277     -1367.472      -1137.6897      23.937687      432000        -1240.5517      85.714195      157.06309     -369.69761    
     61000   299.95806     -1356.1899     -1128.1898     -0.80053043     432000        -1217.8215      77.402545      151.17997     -366.95087    
     62000   325.44472     -1357.9657     -1110.593       25.615503      432000        -1230.2437      90.732508      148.6338      -367.08833    
     63000   322.9873      -1360.9105     -1115.4057      14.360526      432000        -1224.8994      79.188594      145.30511     -360.50471    
     64000   315.54954     -1361.0334     -1121.1821      5.3765292      432000        -1223.5298      86.758165      139.37251     -363.63434    
     65000   306.23168     -1377.3341     -1144.5654      11.633206      432000        -1252.6506      78.985491      159.39498     -363.06392    
     66000   325.88996     -1387.8268     -1140.1157     -39.335008      432000        -1259.3823      85.489288      151.77087     -365.70464    
     67000   327.91539     -1389.3911     -1140.1404      4.3598205      432000        -1253.6569      75.982015      153.21395     -364.93019    
     68000   311.8051      -1371.8859     -1134.8808     -29.09487       432000        -1251.8706      81.952858      156.87368     -358.84185    
     69000   308.40446     -1371.3689     -1136.9486     -10.730478      432000        -1251.757       84.315895      151.60034     -355.52811    
     70000   301.56942     -1363.0759     -1133.851       9.9645375      432000        -1261.9032      94.074718      164.66734     -359.91472    
     71000   336.89389     -1374.8224     -1118.7472     -12.367644      432000        -1228.2933      78.493161      138.44145     -363.46379    
     72000   324.53392     -1379.0353     -1132.355       1.3261221      432000        -1260.17        86.123937      153.19816     -358.18739    
     73000   317.59873     -1363.5063     -1122.0974     -20.070375      432000        -1249.0873      83.684499      161.2735      -359.37705    
     74000   318.98571     -1366.8248     -1124.3617     -4.2270861      432000        -1262.2012      85.28445       171.74984     -361.65793    
     75000   313.20493     -1369.0631     -1130.994      -8.6257693      432000        -1247.5804      84.102521      155.84906     -361.43434    
     76000   323.49512     -1377.5994     -1131.7087     -6.8529994      432000        -1240.5636      78.323484      142.2236      -357.58293    
     77000   334.29456     -1401.95       -1147.8505      12.783399      432000        -1257.0144      74.748415      139.7843      -359.46826    
     78000   299.99517     -1379.1761     -1151.1479     -19.664032      432000        -1248.8377      82.640677      143.92617     -356.90528    
     79000   304.19977     -1397.6938     -1166.4695      72.354575      432000        -1261.032       76.411871      143.39504     -356.46866    
     80000   307.29297     -1404.284      -1170.7086     -10.738792      432000        -1268.1154      87.961233      132.48508     -356.615      
     81000   314.82226     -1412.2554     -1172.957       19.269427      432000        -1273.6514      87.029849      133.22086     -358.85478    
     82000   305.51474     -1401.6083     -1169.3846      3.8423599      432000        -1273.5452      89.492096      140.92003     -358.47521    
     83000   308.17613     -1401.3988     -1167.1521     -4.766375       432000        -1271.272       81.211253      141.94686     -353.28484    
     84000   318.32289     -1404.3872     -1162.4278      11.491948      432000        -1273.622       83.866512      142.88062     -357.51231    
     85000   289.0974      -1387.6533     -1167.9085     -22.668048      432000        -1265.4373      82.470615      152.56567     -357.2523     
     86000   312.42236     -1398.3964     -1160.9221      28.633935      432000        -1264.8057      82.117897      144.25422     -359.96282    
     87000   282.40494     -1384.6185     -1169.9606      8.0442786      432000        -1244.8513      77.691368      137.69904     -355.1576     
     88000   326.94412     -1404.0142     -1155.5019      33.081707      432000        -1254.0935      76.211307      132.82791     -358.95998    
     89000   326.23053     -1376.9348     -1128.9649     -6.0646996      432000        -1254.8974      92.716664      143.111       -357.86512    
     90000   321.53133     -1367.3617     -1122.9636      8.9477001      432000        -1262.3911      81.290808      169.54514     -355.80653    
     91000   328.92857     -1390.2337     -1140.213       22.425927      432000        -1243.7643      78.714368      134.46537     -359.6492     
     92000   319.93653     -1393.0826     -1149.8967      60.045395      432000        -1260.6634      86.671664      137.02168     -356.11248    
     93000   320.30937     -1381.5692     -1138.1         4.0777315      432000        -1261.997       78.64913       160.4944      -358.71571    
     94000   314.33675     -1384.624      -1145.6946      1.7769316      432000        -1268.3269      83.29533       155.13306     -354.72555    
     95000   321.44983     -1387.4722     -1143.1361     -9.8725792      432000        -1259.3483      81.382082      158.80375     -368.30974    
     96000   307.02762     -1384.0474     -1150.6737     -0.34785766     432000        -1267.5898      78.528762      169.81719     -364.80353    
     97000   311.80551     -1405.8596     -1168.8542     -4.7118772      432000        -1282.199       78.444303      158.81803     -360.92298    
     98000   313.8983      -1421.8867     -1183.2906     -2.4403836      432000        -1293.7715      85.07423       152.58998     -365.77947    
     99000   326.0062      -1422.4482     -1174.6488      6.9713774      432000        -1301.7167      85.628087      149.95718     -356.31683    
    100000   329.02504     -1432.4278     -1182.3337     -32.480027      432000        -1292.5239      73.247776      147.59897     -360.75062    
    101000   348.6869      -1445.991      -1180.9518      15.605021      432000        -1313.4405      79.065584      150.87413     -362.49025    
    102000   323.58444     -1425.0387     -1179.08        19.646172      432000        -1315.8666      86.895664      162.96461     -359.03234    
    103000   300.5966      -1435.3825     -1206.897      -27.527947      432000        -1287.4996      83.616373      120.84728     -352.34652    
    104000   302.85682     -1428.7897     -1198.5862      6.8668366      432000        -1288.1157      74.573781      150.22081     -365.46858    
    105000   324.56561     -1427.5212     -1180.8168     -14.279604      432000        -1276.9259      72.578756      139.44898     -362.6231     
    106000   312.99064     -1417.2098     -1179.3035     -39.53668       432000        -1281.2612      74.1067        150.38898     -360.44426    
    107000   336.35842     -1450.2255     -1194.5572      5.8834718      432000        -1310.6263      85.510751      135.08498     -360.19491    
    108000   316.20953     -1424.4598     -1184.1069     -12.559856      432000        -1304.0337      92.332335      139.38473     -352.14323    
    109000   323.57507     -1425.181      -1179.2294      38.570832      432000        -1284.8371      73.88314       141.5061      -355.7331     
    110000   319.72505     -1425.142      -1182.1169     -28.400185      432000        -1298.674       94.602542      136.03668     -357.10731    
    111000   336.74703     -1435.7647     -1179.8011      3.3152527      432000        -1313.0032      78.685218      159.26892     -360.71567    
    112000   324.19481     -1426.8343     -1180.4117      8.2723509      432000        -1306.86        99.982994      136.40899     -356.3663     
    113000   307.29798     -1434.4729     -1200.8936     -1.7866746      432000        -1290.6924      75.925837      141.06134     -360.76766    
    114000   317.96145     -1436.5358     -1194.8512      8.9539771      432000        -1316.1538      89.49325       151.96084     -361.83609    
    115000   322.34917     -1437.3601     -1192.3403     -22.767118      432000        -1312.4872      88.353699      149.49446     -362.72101    
    116000   294.50649     -1428.2556     -1204.3992      40.856049      432000        -1310.7722      92.929429      148.459       -358.87179    
    117000   319.00883     -1423.5305     -1181.0498      21.373229      432000        -1299.6992      81.453021      155.3589      -360.64321    
    118000   322.01462     -1417.4601     -1172.6947     -12.761863      432000        -1308.2755      88.303745      153.40141     -350.88971    
    119000   341.51098     -1436.2212     -1176.6365      27.954649      432000        -1305.0066      87.730958      139.64669     -358.59225    
    120000   334.08874     -1436.9859     -1183.0428      14.695414      432000        -1309.411       86.246109      142.49278     -356.31377    
    121000   327.87207     -1441.0701     -1191.8524      0.29305057     432000        -1302.016       75.469899      142.90031     -357.42433    
    122000   315.85497     -1434.855      -1194.7716     -15.882475      432000        -1314.7927      84.556112      154.78867     -359.4071     
    123000   321.70596     -1430.1838     -1185.653      -28.773958      432000        -1307.9835      84.317522      151.65404     -358.17188    
    124000   322.65933     -1425.5874     -1180.3319     -13.021594      432000        -1316.6875      89.220591      164.04339     -362.1639     
    125000   342.17542     -1431.7618     -1171.672      -12.753347      432000        -1327.4476      94.569291      157.46392     -356.34746    
    126000   321.56288     -1455.0087     -1210.5866     -17.337746      432000        -1323.9807      82.626216      150.03974     -363.69394    
    127000   306.12638     -1436.2697     -1203.581      -7.9094434      432000        -1322.7157      75.595506      169.24633     -358.39589    
    128000   320.63932     -1432.7406     -1189.0206     -10.7306        432000        -1307.9838      91.445954      145.83883     -362.04162    
    129000   322.65396     -1427.7022     -1182.4508      1.3014642      432000        -1309.9071      86.307733      151.73252     -355.83534    
    130000   332.59351     -1432.4467     -1179.6402      23.751869      432000        -1306.6527      87.60402       144.05085     -357.44884    
    131000   331.59884     -1438.3259     -1186.2755      10.216727      432000        -1310.3543      89.009416      143.36483     -360.34583    
    132000   308.5546      -1450.9961     -1216.4618     -8.6835841      432000        -1320.7793      79.580656      151.21602     -361.01354    
    133000   278.27673     -1437.8903     -1226.3703      23.219423      432000        -1319.9598      91.426514      149.83343     -359.19042    
    134000   302.11494     -1442.1867     -1212.5472      41.706298      432000        -1298.6073      83.728848      134.4644      -361.77263    
    135000   304.33041     -1429.1412     -1197.8176      18.11531       432000        -1291.9702      72.811851      151.56222     -361.54506    
    136000   323.59293     -1433.2903     -1187.3252      47.143658      432000        -1297.3569      77.734012      143.58712     -357.2545     
    137000   333.28203     -1435.9622     -1182.6324     -15.393925      432000        -1293.3879      79.475804      133.85035     -355.90051    
    138000   298.59167     -1408.8728     -1181.9113      25.417471      432000        -1310.8013      92.472007      172.39643     -362.93991    
    139000   310.09631     -1444.2482     -1208.542      -12.443372      432000        -1325.0741      75.040232      164.56663     -358.78103    
    140000   302.87151     -1432.3426     -1202.128      -16.693979      432000        -1276.1477      65.417346      137.66006     -359.27233    
    141000   307.94709     -1436.9038     -1202.8312     -23.283622      432000        -1315.4668      79.94202       157.66617     -359.04514    
    142000   339.11189     -1451.7309     -1193.9698      32.341205      432000        -1311.4695      79.401784      141.00143     -360.66463    
    143000   318.04967     -1442.0222     -1200.2706      4.0111758      432000        -1314.3947      77.166515      151.82537     -356.61942    
    144000   302.26434     -1425.4243     -1195.6712     -3.2262005      432000        -1302.3469      83.733636      153.62571     -360.43677    
    145000   307.97581     -1438.997      -1204.9025     -19.230121      432000        -1309.5927      78.033458      154.10342     -361.54118    
    146000   303.09921     -1430.8344     -1200.4467      0.03619411     432000        -1301.2697      82.852879      143.68336     -356.10091    
    147000   302.66933     -1444.4935     -1214.4326      46.822756      432000        -1320.5227      82.358117      154.13167     -360.46059    
    148000   333.50081     -1463.1168     -1209.6206      19.544086      432000        -1317.4194      79.035137      136.06685     -360.79941    
    149000   307.03979     -1436.2524     -1202.8694     -28.643129      432000        -1314.8568      79.274787      158.17359     -358.844      
    150000   328.65052     -1432.1654     -1182.356       45.72982       432000        -1315.3983      90.974071      147.41424     -355.15541    
    151000   337.775       -1435.2974     -1178.5525      6.8691894      432000        -1300.55        76.847163      143.16807     -354.76266    
    152000   320.55052     -1435.6063     -1191.9537     -12.204795      432000        -1304.905       81.401186      143.39139     -355.49382    
    153000   319.33539     -1446.8226     -1204.0937     -1.6669383      432000        -1317.9061      78.574063      152.85336     -360.34398    
    154000   313.8708      -1438.3929     -1199.8176      48.750097      432000        -1325.8124      81.062529      167.99493     -361.63789    
    155000   317.40618     -1441.783      -1200.5205     -19.393602      432000        -1324.2074      83.595589      154.56744     -355.73867    
    156000   305.42707     -1441.6172     -1209.4601     -2.9158502      432000        -1301.1337      76.451879      143.80691     -360.74231    
    157000   316.13118     -1425.0947     -1184.8013     -7.6691331      432000        -1317.0945      90.411958      158.74499     -357.15707    
    158000   312.28756     -1432.2873     -1194.9155      2.6629316      432000        -1300.8756      73.390704      153.19051     -357.99285    
    159000   325.64491     -1441.3674     -1193.8426      31.322401      432000        -1315.528       82.771973      154.65478     -363.26618    
    160000   318.78225     -1440.613      -1198.3046     -15.944805      432000        -1316.0916      87.002832      150.06503     -361.58928    
    161000   303.90538     -1413.821      -1182.8205     -33.425176      432000        -1311.5572      95.190215      162.65209     -360.10612    
    162000   337.01824     -1439.676      -1183.5062     -2.6877928      432000        -1322.1724      81.979066      155.87884     -355.36151    
    163000   331.41946     -1446.3651     -1194.4509      46.646021      432000        -1338.9882      84.187258      170.58387     -362.14793    
    164000   316.43864     -1467.5907     -1227.0636     -23.487418      432000        -1329.0943      83.067109      136.56196     -358.12549    
    165000   330.524       -1468.5495     -1217.316      -8.2696233      432000        -1354.8951      95.886225      150.37069     -359.91132    
    166000   319.24786     -1493.5132     -1250.8508      12.529182      432000        -1376.7204      88.501201      150.8918      -356.18578    
    167000   328.79321     -1517.2015     -1267.2836     -6.8080561      432000        -1406.4295      82.904216      163.35295     -357.0292     
    168000   323.44504     -1512.91       -1267.0573     -15.31424       432000        -1388.0295      80.82787       146.27578     -351.98416    
    169000   346.32644     -1531.9824     -1268.7374     -14.289397      432000        -1414.2069      80.517299      159.98675     -358.27961    
    170000   328.52425     -1527.649      -1277.9356     -46.967027      432000        -1419.2409      80.201171      165.76198     -354.37131    
    171000   316.20163     -1534.4048     -1294.0579      1.4373929      432000        -1429.7202      93.689782      155.40789     -353.78229    
    172000   297.38276     -1524.3574     -1298.3148      1.1140369      432000        -1414.4752      87.828685      156.07651     -353.78742    
    173000   313.68894     -1522.6959     -1284.2589     -32.054764      432000        -1408.9256      80.553035      157.81921     -352.14254    
    174000   303.10656     -1530.9277     -1300.5344      2.0992482      432000        -1404.3238      76.540692      148.2784      -351.423      
    175000   323.92594     -1533.6035     -1287.3853     -46.129424      432000        -1412.8112      74.800235      156.62437     -352.21699    
    176000   303.60222     -1523.0747     -1292.3047     -23.923472      432000        -1403.0738      76.606316      151.63026     -348.23753    
    177000   303.46999     -1540.3535     -1309.6839     -3.3287025      432000        -1428.2721      83.183747      147.72894     -342.99403    
    178000   286.37207     -1521.1749     -1303.5016      39.489807      432000        -1408.6924      82.607147      155.90709     -350.99669    
    179000   307.81111     -1539.5903     -1305.621       42.384403      432000        -1411.5436      75.824301      146.83188     -350.70288    
    180000   316.7507      -1535.2302     -1294.4659     -15.279422      432000        -1421.6234      94.15173       139.75225     -347.51078    
    181000   314.79863     -1541.4317     -1302.1512      34.111584      432000        -1426.9994      86.009096      150.61542     -351.05685    
    182000   304.54408     -1518.7305     -1287.2446     -13.001081      432000        -1418.5786      87.733523      158.2741      -346.15958    
    183000   343.57233     -1543.5009     -1282.3493      26.90405       432000        -1427.6812      70.637855      159.1086      -345.56614    
    184000   314.99101     -1515.1223     -1275.6955      8.3113916      432000        -1405.1827      85.305026      154.93962     -350.18423    
    185000   330.96369     -1521.7612     -1270.1935     -41.044395      432000        -1405.6687      80.156262      151.59563     -347.84443    
    186000   323.15391     -1505.4497     -1259.8183     -10.268539      432000        -1407.0963      83.536433      162.3644      -344.25422    
    187000   343.70146     -1497.2907     -1236.041      -20.650336      432000        -1381.5353      95.319008      135.79578     -346.87026    
    188000   330.6508      -1501.7971     -1250.4672      11.684714      432000        -1410.7096      95.308464      156.67875     -343.07473    
    189000   298.43577     -1493.1565     -1266.3136     -14.137995      432000        -1424.061       89.385695      179.87609     -338.35732    
    190000   352.88808     -1533.0361     -1264.8036      48.871139      432000        -1435.6765      76.646129      169.29927     -343.30505    
    191000   312.37622     -1516.757      -1279.3178      3.8362143      432000        -1411.9141      93.820501      151.44112     -350.10449    
    192000   339.81707     -1540.6863     -1282.3891      2.1841045      432000        -1426.3005      75.464383      151.51753     -341.36766    
    193000   321.83735     -1532.2831     -1287.6524      21.11795       432000        -1424.4863      85.713901      156.15297     -349.66365    
    194000   322.32622     -1541.718      -1296.7157     -6.4377459      432000        -1432.5125      87.797047      148.63535     -345.63789    
    195000   329.09105     -1524.7235     -1274.5792     -10.634997      432000        -1418.3788      81.812252      160.44507     -348.602      
    196000   311.94423     -1515.9669     -1278.856      -11.484452      432000        -1399.7721      86.327848      141.60623     -344.12882    
    197000   324.11559     -1547.5797     -1301.2173      27.607715      432000        -1428.0733      71.130647      153.16591     -343.8029     
    198000   307.21953     -1548.7836     -1315.264       28.494373      432000        -1433.4178      70.726028      155.75917     -341.85098    
    199000   313.43978     -1541.5087     -1303.2611     -37.349206      432000        -1444.5033      79.30057       165.87128     -342.17729    
    200000   297.8954      -1524.1439     -1297.7117      5.3852215      432000        -1430.7247      81.736429      164.38957     -339.54523    
    201000   316.12137     -1538.1118     -1297.8258     -25.906219      432000        -1430.2861      79.956306      152.8721      -340.65404    
    202000   325.84096     -1552.9108     -1305.2369     -9.6555966      432000        -1451.6851      73.781236      165.62521     -340.63209    
    203000   323.75749     -1549.5571     -1303.4669     -42.361214      432000        -1429.5059      80.270315      145.19114     -345.51272    
    204000   336.44436     -1550.9249     -1295.1913      37.178068      432000        -1434.4191      71.402035      155.53107     -343.43893    
    205000   316.68108     -1536.1497     -1295.4383      4.5820138      432000        -1423.0636      85.070062      141.30393     -339.46008    
    206000   310.57549     -1527.3278     -1291.2573     -10.143835      432000        -1421.3405      87.288653      153.1531      -346.42907    
    207000   306.88142     -1523.7484     -1290.4858     -12.674076      432000        -1421.7499      86.32554       154.41002     -342.73406    
    208000   326.92342     -1533.3626     -1284.866      -6.1315858      432000        -1421.4168      79.761337      157.48629     -349.1934     
    209000   305.51348     -1541.3193     -1309.0965      4.006267       432000        -1414.0088      88.692457      135.94252     -351.94551    
    210000   308.67986     -1528.36       -1293.7304     -23.493398      432000        -1430.6726      88.88455       163.37901     -349.9509     
    211000   341.44819     -1554.6755     -1295.1385     -20.882065      432000        -1431.3198      74.371059      155.85284     -353.57962    
    212000   347.66929     -1570.687      -1306.4213      18.827297      432000        -1433.5354      72.624999      138.60854     -348.38519    
    213000   298.44295     -1547.2123     -1320.3638     -10.222353      432000        -1451.0441      105.89214      149.91684     -351.97711    
    214000   317.82745     -1552.6677     -1311.085       15.428591      432000        -1404.2902      79.034195      130.28026     -357.69205    
    215000   328.57822     -1549.4059     -1299.6514     -20.525583      432000        -1435.5032      80.509794      157.36905     -351.78154    
    216000   331.63503     -1560.6676     -1308.5897      29.719634      432000        -1427.6569      82.585017      138.41847     -354.01426    
    217000   337.67292     -1531.5969     -1274.9295     -25.625032      432000        -1421.9282      75.546543      165.11458     -350.32979    
    218000   331.65837     -1554.4903     -1302.3946      13.079227      432000        -1450.7382      84.894843      163.4498      -352.09682    
    219000   307.4234      -1563.2098     -1329.5353     -13.563129      432000        -1438.7464      85.35816       149.49983     -359.32142    
    220000   344.22268     -1585.4508     -1323.8049     -7.0155235      432000        -1448.9281      73.293417      147.51667     -357.33277    
    221000   299.44549     -1546.314      -1318.7035      15.857336      432000        -1439.1976      79.36904       171.29312     -357.77855    
    222000   318.43711     -1575.3241     -1333.278      -12.185127      432000        -1440.935       75.30496       144.37578     -354.0699     
    223000   306.23725     -1554.9505     -1322.1776      6.0016506      432000        -1428.6749      77.101129      150.47686     -353.85361    
    224000   299.33591     -1565.4276     -1337.9004      32.17183       432000        -1440.2077      76.62977       150.56576     -352.41542    
    225000   314.97284     -1544.738      -1305.325       30.327517      432000        -1431.9393      93.657697      145.86043     -352.31675    
    226000   324.15577     -1558.9222     -1312.5293      8.0444236      432000        -1449.1481      80.175913      162.88877     -352.83879    
    227000   316.57722     -1551.5714     -1310.939      -16.951217      432000        -1424.2909      76.79878       149.49939     -353.57865    
    228000   282.49083     -1545.5004     -1330.7772     -4.2596004      432000        -1433.4955      86.691839      156.94271     -355.63942    
    229000   300.80723     -1554.2447     -1325.5992     -11.957683      432000        -1435.5938      74.276502      163.67838     -356.60578    
    230000   296.55105     -1566.3103     -1340.8999      5.3223195      432000        -1424.4833      77.798688      137.35785     -356.98355    
    231000   293.42343     -1562.7338     -1339.7007     -16.3584        432000        -1435.0709      87.757013      144.90384     -360.32366    
    232000   301.29428     -1571.3815     -1342.3657      26.084916      432000        -1437.3604      75.913625      145.88729     -355.82195    
    233000   311.30993     -1564.1974     -1327.5687     -26.14503       432000        -1427.9479      76.714695      140.47331     -353.43756    
    234000   301.42646     -1564.9008     -1335.7846      36.654287      432000        -1438.2007      86.642492      136.70837     -350.05102    
    235000   306.14833     -1551.1013     -1318.396      -39.721752      432000        -1431.7639      84.20343       155.59469     -359.13556    
    236000   323.45584     -1563.8035     -1317.9425     -1.9356226      432000        -1431.3724      71.680352      152.255       -356.36645    
    237000   315.43738     -1554.3222     -1314.5562      5.4975925      432000        -1441.9258      91.112355      154.58079     -358.08955    
    238000   320.47112     -1549.6716     -1306.0794      5.3573397      432000        -1425.9566      84.998108      144.6187      -353.33177    
    239000   327.49667     -1552.8511     -1303.9187      1.5163975      432000        -1429.6407      79.822695      155.56309     -358.59621    
    240000   317.75433     -1554.5328     -1313.0057      16.377667      432000        -1418.504       82.623027      131.30461     -349.95645    
    241000   327.54795     -1554.98       -1306.0086     -13.334673      432000        -1446.5997      78.611442      172.63301     -359.62472    
    242000   327.09655     -1561.1666     -1312.5384     -14.287679      432000        -1434.9489      71.236289      156.32482     -353.77883    
    243000   319.38072     -1548.4358     -1305.6724     -15.863712      432000        -1440.8331      89.752564      162.89119     -360.24646    
    244000   303.2217      -1555.2953     -1324.8145      25.996812      432000        -1426.9634      85.072104      142.72983     -356.13386    
    245000   335.76414     -1581.1634     -1325.9469     -19.50812       432000        -1436.5375      74.244362      136.51935     -355.3896     
    246000   325.4119      -1548.5106     -1301.1629      1.9232057      432000        -1426.9251      80.379516      152.58324     -354.54828    
    247000   304.32488     -1569.7863     -1338.4669     -14.470479      432000        -1439.4195      87.503722      132.58633     -350.45684    
    248000   312.67351     -1569.2281     -1331.5629      3.8518982      432000        -1455.7794      89.425167      152.18601     -355.05991    
    249000   284.98633     -1545.4569     -1328.8369      17.418905      432000        -1423.5482      83.198638      150.90036     -356.00775    
    250000   306.67579     -1568.0129     -1334.9066     -7.4620749      432000        -1440.3285      78.259292      143.9718      -349.91541    
    251000   288.18557     -1559.7779     -1340.7261      14.512713      432000        -1446.2567      79.841195      162.0614      -355.42372    
    252000   287.93548     -1580.5706     -1361.709       6.6668654      432000        -1448.0587      71.539877      145.15607     -349.20791    
    253000   279.36462     -1587.8985     -1375.5516     -58.546606      432000        -1436.2194      69.612506      128.98247     -350.2741     
    254000   288.42231     -1562.4372     -1343.2055     -24.800508      432000        -1431.0376      81.739542      139.6424      -352.78153    
    255000   296.25214     -1571.7138     -1346.5306      25.354041      432000        -1455.1966      78.99542       156.12527     -351.63782    
    256000   298.91368     -1541.5545     -1314.3483     -27.231607      432000        -1423.6503      99.388904      139.81847     -357.11159    
    257000   308.34348     -1537.5193     -1303.1454      18.611579      432000        -1415.1469      90.562187      140.73468     -353.66929    
    258000   333.46733     -1567.8324     -1314.3617      12.367286      432000        -1445.3845      82.500053      154.22891     -359.17689    
    259000   319.93183     -1562.5219     -1319.3396      19.784204      432000        -1423.0828      68.365194      149.93614     -357.74039    
    260000   311.71675     -1562.5052     -1325.5672      7.1798499      432000        -1442.3208      78.140661      153.90087     -352.22588    
    261000   302.65821     -1559.2029     -1329.1504     -23.960416      432000        -1437.2676      80.787704      149.33121     -352.05425    
    262000   316.17186     -1578.6243     -1338.3         22.057581      432000        -1443.1141      81.655885      132.58492     -349.75098    
    263000   316.73704     -1555.745      -1314.9911      3.9638366      432000        -1450.9757      88.605581      161.37283     -354.74776    
    264000   340.29399     -1547.3119     -1288.6522      41.178052      432000        -1430.4041      93.822701      141.07183     -351.80232    
    265000   351.0259      -1555.6433     -1288.8262      2.9720193      432000        -1421.8012      80.683282      136.2546      -350.77999    
    266000   319.18233     -1562.3638     -1319.7512      12.6317        432000        -1452.3197      90.551113      150.27964     -350.87479    
    267000   338.45002     -1591.4031     -1334.145      -4.4230333      432000        -1465.469       80.749674      144.65758     -351.3413     
    268000   320.00932     -1569.8572     -1326.616       25.393155      432000        -1439.676       78.875688      143.60398     -352.66087    
    269000   336.5817      -1579.207      -1323.369       19.545121      432000        -1448.4843      84.716353      139.96219     -355.4012     
    270000   316.32167     -1569.6705     -1329.2324      11.630511      432000        -1461.4809      81.719705      162.62084     -352.53018    
    271000   295.44544     -1556.3357     -1331.7656      41.72239       432000        -1427.1318      77.620357      143.39531     -350.21955    
    272000   321.27564     -1575.3132     -1331.1095     -2.79971        432000        -1465.256       83.753426      162.33296     -356.14364    
    273000   298.46902     -1575.0288     -1348.1605     -10.523761      432000        -1458.8519      87.104601      144.95767     -348.23917    
    274000   275.74891     -1565.6162     -1356.0177     -16.905522      432000        -1438.3482      77.602557      147.38666     -352.25723    
    275000   275.76259     -1573.4825     -1363.8736     -5.4056526      432000        -1443.0144      69.690099      147.91461     -348.07284    
    276000   321.65022     -1572.9264     -1328.438      -1.0328453      432000        -1433.493       84.659456      131.93222     -356.02512    
    277000   315.54556     -1564.0899     -1324.2417     -6.5567961      432000        -1443.5047      85.696835      148.52923     -354.81134    
    278000   305.48971     -1570.7106     -1338.5059     -5.6471221      432000        -1446.2145      85.704831      145.76742     -355.96838    
    279000   314.40321     -1548.102      -1309.1221      0.15177563     432000        -1416.9267      90.966868      133.45264     -355.59483    
    280000   321.79031     -1561.1542     -1316.5592     -11.247172      432000        -1438.803       79.379765      152.90747     -354.63835    
    281000   302.80495     -1550.7313     -1320.5673      20.410416      432000        -1418.4886      77.940127      143.74509     -353.92798    
    282000   321.59564     -1548.8857     -1304.4388     -10.627725      432000        -1426.703       91.872752      142.9135      -356.96904    
    283000   327.76352     -1556.4049     -1307.2697     -19.974328      432000        -1412.2953      77.435357      133.47456     -355.01956    
    284000   332.54712     -1557.854      -1305.0828      17.884596      432000        -1417.43        78.876936      138.47005     -357.771      
    285000   325.00311     -1563.6756     -1316.6386     -19.396738      432000        -1442.3332      85.771754      148.88366     -355.9978     
    286000   316.84276     -1559.9963     -1319.1621      24.548075      432000        -1447.886       89.271142      155.75872     -357.14018    
    287000   299.62679     -1572.5631     -1344.8148     -20.089714      432000        -1442.5008      76.160906      150.93161     -357.1548     
    288000   298.16707     -1563.6894     -1337.0506      3.8659083      432000        -1452.1547      84.634862      156.06503     -352.2345     
    289000   299.47644     -1546.4647     -1318.8307     -2.8649876      432000        -1424.5108      89.229347      145.77728     -356.96055    
    290000   316.76493     -1562.8523     -1322.0772     -4.2359042      432000        -1431.2794      85.254919      136.09663     -352.9245     
    291000   315.91847     -1560.7673     -1320.6356     -14.878631      432000        -1428.348       79.328857      141.88433     -353.63245    
    292000   326.39496     -1570.231      -1322.136       33.594634      432000        -1452.5057      100.3135       137.50907     -355.54783    
    293000   304.56085     -1558.5177     -1327.019      -16.735005      432000        -1443.2862      84.832054      152.43301     -352.49652    
    294000   298.87288     -1584.7559     -1357.5806      29.754783      432000        -1457.7355      76.848135      147.87669     -351.74516    
    295000   313.28965     -1568.3276     -1330.1941     -32.346352      432000        -1428.8783      82.654125      133.15044     -355.25386    
    296000   297.07821     -1570.6678     -1344.8567     -2.9146901      432000        -1444.5434      74.899846      151.79328     -352.81753    
    297000   307.64116     -1575.1938     -1341.3537     -13.117194      432000        -1454.9127      83.997265      150.26602     -354.54437    
    298000   285.01667     -1566.0335     -1349.3905     -10.863695      432000        -1433.2245      85.617394      139.18713     -357.61357    
    299000   325.3225      -1570.4658     -1323.186      -10.057682      432000        -1437.7709      85.483794      136.59631     -354.77494    
    300000   298.13729     -1565.7895     -1339.1734     -17.229232      432000        -1438.2479      79.723842      146.98445     -354.2499     
    301000   327.52213     -1557.5522     -1308.6004      37.727907      432000        -1413.5759      73.193938      137.25765     -354.42783    
    302000   336.66728     -1562.0832     -1306.1802     -11.575436      432000        -1424.9791      79.134585      145.36821     -361.60684    
    303000   324.44333     -1557.8032     -1311.1917      0.21212493     432000        -1443.3026      89.295875      154.94218     -358.73868    
    304000   334.6652      -1547.2711     -1292.8898     -40.142409      432000        -1433.8272      86.24392       159.55987     -359.2477     
    305000   325.44525     -1567.1867     -1319.8136     -7.983146       432000        -1421.1948      71.258871      138.1915      -355.44225    
    306000   325.26306     -1564.8278     -1317.5932      20.862266      432000        -1449.9022      90.165501      147.08195     -352.17303    
    307000   308.50102     -1552.6993     -1318.2057      7.6590152      432000        -1432.2653      76.488806      161.88492     -358.80776    
    308000   282.83852     -1562.0745     -1347.0871      34.363195      432000        -1430.6765      90.154042      136.62707     -358.17908    
    309000   310.7741      -1578.9392     -1342.7178      24.928509      432000        -1459.8529      81.983478      154.56301     -355.63286    
    310000   296.62975     -1559.3359     -1333.8657     -36.445824      432000        -1434.082       86.554092      143.64259     -355.45063    
    311000   303.82068     -1586.6143     -1355.6782      6.1374896      432000        -1452.6143      71.370325      150.26517     -355.63553    
    312000   313.95589     -1580.8508     -1342.2109      30.093885      432000        -1441.9523      69.680134      148.08807     -356.66667    
    313000   303.17258     -1565.177      -1334.7335      44.712544      432000        -1430.259       81.081437      132.47785     -348.4772     
    314000   326.79165     -1590.494      -1342.0975      53.800944      432000        -1443.5227      84.636191      125.19329     -356.80078    
    315000   286.93083     -1571.8053     -1353.7073      4.8494891      432000        -1454.2558      87.836069      150.2509      -355.63649    
    316000   291.85177     -1585.5734     -1363.7349     -16.503308      432000        -1442.8296      76.579295      129.50911     -348.83219    
    317000   284.79057     -1561.6676     -1345.1964     -27.476498      432000        -1441.2347      80.161696      150.55932     -351.15398    
    318000   298.0121      -1583.9421     -1357.4211      15.221225      432000        -1441.7586      73.631134      139.80997     -355.62454    
    319000   325.84624     -1580.8862     -1333.2083     -0.7600386      432000        -1437.5794      73.135308      137.28682     -353.7289     
    320000   281.93943     -1577.3419     -1363.0379      4.5178057      432000        -1438.5003      79.59981       137.25773     -355.69908    
    321000   292.72837     -1579.4909     -1356.9862      13.605681      432000        -1445.9209      78.602312      143.25524     -355.4276     
    322000   277.31708     -1572.6223     -1361.8318     -1.5745468      432000        -1439.4709      74.968074      138.32871     -346.4482     
    323000   287.49145     -1567.0096     -1348.4855     -4.6153097      432000        -1436.3402      81.794362      139.78506     -352.2489     
    324000   313.04849     -1560.5511     -1322.6009      0.32418094     432000        -1448.0449      86.333388      153.69986     -352.53944    
    325000   321.63767     -1552.7924     -1308.3135     -9.380113       432000        -1423.1204      78.666933      143.71524     -352.05422    
    326000   322.80073     -1543.7158     -1298.3529      11.927885      432000        -1419.8707      91.073452      140.3483      -355.2669     
    327000   316.64033     -1548.9221     -1308.2417     -15.188722      432000        -1431.5614      80.242066      164.27633     -361.87908    
    328000   293.06865     -1535.199      -1312.4356      22.662572      432000        -1427.2284      86.026516      158.24626     -352.24337    
    329000   314.50397     -1552.411      -1313.3545     -4.8862562      432000        -1439.2769      88.428552      150.33523     -351.89792    
    330000   334.54359     -1566.8001     -1312.5113     -6.6515664      432000        -1444.1453      80.345549      156.64382     -359.64415    
    331000   314.35759     -1552.5178     -1313.5725     -29.671834      432000        -1429.982       83.387242      154.35409     -360.27707    
    332000   338.24332     -1534.5942     -1277.4932      19.211505      432000        -1415.0033      97.400255      133.40598     -350.3971     
    333000   330.23286     -1535.8748     -1284.8627     -17.72363       432000        -1405.66        83.042245      139.18852     -352.44558    
    334000   319.96318     -1533.7679     -1290.5618      43.131895      432000        -1435.6746      100.49913      159.05292     -357.64535    
    335000   333.11607     -1535.0918     -1281.8881     -24.209705      432000        -1410.0984      84.36189       146.11464     -355.46986    
    336000   342.34071     -1553.8016     -1293.5862     -5.4238812      432000        -1429.0523      80.864611      150.35665     -355.97058    
    337000   312.70697     -1557.6351     -1319.9445     -8.9048138      432000        -1431.2359      76.8433        150.53184     -353.77442    
    338000   334.11861     -1565.191      -1311.2253     -10.398131      432000        -1426.2537      75.108898      142.43652     -356.48272    
    339000   290.63265     -1548.9072     -1327.9955      33.030464      432000        -1434.7593      97.271923      149.44524     -360.86514    
    340000   341.69904     -1571.2711     -1311.5434      33.949077      432000        -1438.112       84.541683      141.79995     -359.5008     
    341000   333.96522     -1579.8779     -1326.0287     -7.5942317      432000        -1446.8944      75.411655      145.09323     -353.48829    
    342000   311.80629     -1578.5512     -1341.5452      34.661453      432000        -1432.9337      76.243943      135.06458     -356.92599    
    343000   300.84384     -1545.826      -1317.1527     -21.563784      432000        -1427.4154      83.950511      155.78066     -358.14175    
    344000   315.10433     -1559.9065     -1320.3936      15.931         432000        -1438.0023      85.359963      150.62035     -357.88453    
    345000   284.88877     -1560.6972     -1344.1514      9.817465       432000        -1441.2055      99.503526      140.87135     -359.86656    
    346000   290.50947     -1562.1944     -1341.3763     -30.788666      432000        -1440.9265      92.805859      147.25318     -361.32697    
    347000   300.65175     -1558.5866     -1330.0592      9.5176411      432000        -1439.6373      84.642074      148.46985     -352.06128    
    348000   333.75667     -1556.9724     -1303.2818      4.5312645      432000        -1421.762       88.750787      133.79461     -357.75584    
    349000   338.2773      -1546.2786     -1289.1518      31.770175      432000        -1416.0701      81.753194      148.15638     -360.11808    
    350000   334.28126     -1573.3049     -1319.2155      17.065778      432000        -1441.4051      77.59303       151.61687     -361.1097     
    351000   340.4313      -1566.9498     -1308.1857      10.565998      432000        -1439.7696      78.066612      152.52865     -357.77547    
    352000   322.95535     -1554.1327     -1308.6522     -16.492593      432000        -1432.3042      93.678813      142.76818     -358.27546    
    353000   306.83448     -1544.8329     -1311.606      -8.3136049      432000        -1432.0263      89.599983      155.15578     -357.56237    
    354000   314.95609     -1564.9606     -1325.5604      25.64685       432000        -1457.1936      86.201063      160.9728      -354.9408     
    355000   318.0375      -1577.6954     -1335.953       9.8797117      432000        -1452.5361      77.901129      153.2997      -356.36019    
    356000   315.70501     -1563.142      -1323.1725     -15.00394       432000        -1414.6939      77.130171      134.43787     -360.01613    
    357000   289.18581     -1552.7653     -1332.9533      12.249962      432000        -1419.824       79.908884      144.40913     -357.25932    
    358000   296.18943     -1565.4741     -1340.3386     -13.202048      432000        -1437.8712      74.652048      158.71645     -360.97146    
    359000   286.19566     -1558.4582     -1340.919      -21.739923      432000        -1456.4943      93.722939      159.51899     -355.20585    
    360000   295.34271     -1579.2279     -1354.736      -22.851476      432000        -1437.2248      65.486948      150.19581     -357.68592    
    361000   304.08873     -1570.127      -1338.9871      19.249378      432000        -1434.0102      73.938523      147.0262      -357.08151    
    362000   310.99505     -1574.7367     -1338.3473     -12.601098      432000        -1431.8089      80.010379      129.17229     -352.11045    
    363000   304.58055     -1576.0663     -1344.5527     -1.5042225      432000        -1431.3737      86.916004      121.46084     -353.06947    
    364000   291.38715     -1555.2553     -1333.77       -38.524885      432000        -1448.3161      92.918135      153.13852     -352.99592    
    365000   314.40737     -1581.2419     -1342.2588      2.2637051      432000        -1450.8941      82.397839      144.43496     -357.18065    
    366000   302.53221     -1564.619      -1334.6623      6.6489546      432000        -1443.7843      74.256947      159.43823     -354.52982    
    367000   307.49505     -1581.6736     -1347.9446      17.584357      432000        -1467.7445      81.450977      159.51607     -354.89611    
    368000   284.92558     -1584.9368     -1368.363      -7.2465027      432000        -1449.8701      79.832916      146.13938     -361.03903    
    369000   293.11197     -1576.8713     -1354.0749     -3.8819949      432000        -1433.7874      73.87538       140.03048     -356.9897     
    370000   309.02286     -1580.4277     -1345.5374     -12.486455      432000        -1446.2214      82.480519      143.09352     -359.78033    
    371000   300.51603     -1551.3199     -1322.8957      7.8050309      432000        -1434.8996      89.06503       151.03405     -356.51933    
    372000   302.98275     -1581.6177     -1351.3185      0.80081578     432000        -1439.4893      76.14951       136.24961     -354.52752    
    373000   291.47986     -1562.8118     -1341.2561     -24.032242      432000        -1442.2258      87.155998      150.86202     -358.60405    
    374000   303.07606     -1573.4465     -1343.0764      5.8069701      432000        -1444.174       74.285592      153.00083     -356.5589     
    375000   308.83933     -1574.4781     -1339.7273     -22.32584       432000        -1439.5545      75.529102      147.58135     -358.03409    
    376000   297.17764     -1578.678      -1352.7913     -12.593669      432000        -1442.4761      88.784282      130.66384     -355.64994    
    377000   313.63582     -1585.6379     -1347.2413      8.5073992      432000        -1462.0768      86.916464      148.23191     -358.70952    
    378000   316.21449     -1575.241      -1334.8842     -38.007023      432000        -1445.4516      83.211951      147.98099     -360.9823     
    379000   315.43156     -1570.2849     -1330.5233      13.2172        432000        -1458.4273      92.392301      153.47859     -357.72853    
    380000   319.5554      -1571.6173     -1328.7211     -31.016443      432000        -1442.83        78.792034      152.37672     -359.95607    
    381000   298.25865     -1565.6405     -1338.9321     -2.5362306      432000        -1438.7932      70.946854      166.14172     -363.93588    
    382000   285.23584     -1582.9729     -1366.1632      2.7039671      432000        -1440.8139      78.693784      141.08796     -361.94071    
    383000   292.92853     -1594.5974     -1371.9405     -9.3824687      432000        -1438.7009      74.71042       131.05315     -361.66008    
    384000   295.16724     -1580.9758     -1356.6172     -0.31395537     432000        -1454.405       82.8514        150.77586     -360.19802    
    385000   281.17593     -1555.7686     -1342.0449     -6.5269593      432000        -1439.2859      92.391695      147.83409     -356.70849    
    386000   326.9859      -1595.396      -1346.8518      4.5904375      432000        -1457.2986      76.50247       143.10119     -357.70101    
    387000   287.83791     -1569.5456     -1350.7582     -11.316828      432000        -1462.6438      90.011825      160.22023     -357.13388    
    388000   316.92736     -1587.0662     -1346.1676     -0.74289596     432000        -1455.464       66.321692      155.03056     -352.95446    
    389000   307.51698     -1577.5563     -1343.8107     -18.713088      432000        -1443.0325      79.412252      142.24847     -356.18452    
    390000   295.35909     -1578.4045     -1353.9001     -4.2027009      432000        -1458.342       90.010842      146.55232     -356.62565    
    391000   276.4024      -1581.7821     -1371.6868      14.724235      432000        -1437.2717      71.510205      142.59133     -358.61199    
    392000   290.10277     -1592.3578     -1371.8488     -40.186332      432000        -1452.6147      82.592103      137.07194     -359.40714    
    393000   307.57233     -1599.6836     -1365.8958     -4.1831628      432000        -1464.5998      74.692379      150.49697     -360.27316    
    394000   294.35953     -1599.439      -1375.6944     -9.3536352      432000        -1469.0198      75.570455      152.72093     -358.71066    
    395000   309.31535     -1588.4333     -1353.3206      24.315295      432000        -1449.2315      81.113738      142.15182     -362.46728    
    396000   334.98289     -1579.2864     -1324.6637      20.911993      432000        -1438.6118      76.403965      142.53786     -359.61645    
    397000   313.01787     -1569.3978     -1331.4709     -20.866056      432000        -1441.1736      84.60286       143.90758     -356.73469    
    398000   310.92538     -1566.6068     -1330.2704     -9.9575378      432000        -1458.0253      81.874418      167.10214     -357.55807    
    399000   322.46362     -1590.2181     -1345.1114      17.469499      432000        -1453.7871      68.593547      153.71873     -358.74329    
    400000   278.11581     -1560.4804     -1349.0828     -9.7925539      432000        -1440.1036      81.256803      156.05526     -357.68894    
    401000   312.68788     -1574.986      -1337.3098      0.24055179     432000        -1445.4768      79.812095      148.3341      -357.65534    
    402000   311.33769     -1576.8985     -1340.2487      0.12684775     432000        -1449.4382      86.222057      146.22529     -359.90766    
    403000   284.94575     -1560.6788     -1344.0897     -5.4397518      432000        -1450.1214      99.354571      151.16267     -361.07471    
    404000   318.72558     -1580.8271     -1338.5617      32.394027      432000        -1464.6016      83.764265      155.04881     -355.03862    
    405000   327.10715     -1576.9952     -1328.359       15.340165      432000        -1435.2298      79.412379      139.31403     -360.49183    
    406000   299.55838     -1559.0319     -1331.3356     -1.9748237      432000        -1430.2737      90.460529      141.0343      -360.25298    
    407000   336.6962      -1580.0599     -1324.1349      25.371602      432000        -1446.3761      77.60161       148.80426     -360.08966    
    408000   303.99765     -1575.1526     -1344.082      -6.2123285      432000        -1460.3498      85.25746       156.64387     -356.70417    
    409000   326.70214     -1579.3611     -1331.0327     -27.361841      432000        -1442.5901      67.183942      153.70027     -357.6553     
    410000   309.93538     -1571.401      -1335.8171      16.917352      432000        -1426.6165      76.680385      135.51431     -356.97925    
    411000   290.29731     -1564.0305     -1343.3737     -10.897572      432000        -1443.0991      75.178915      158.1579      -354.26829    
    412000   290.5132      -1583.0417     -1362.2207      32.360061      432000        -1459.4174      85.312687      149.96315     -358.90016    
    413000   281.52978     -1584.1239     -1370.1312      32.692327      432000        -1467.998       80.507608      155.20337     -351.83686    
    414000   321.53816     -1593.9564     -1349.5531      20.93931       432000        -1442.4026      57.093043      148.18503     -356.8318     
    415000   284.31829     -1575.3121     -1359.1999     -51.602918      432000        -1440.3195      78.170194      145.71127     -358.874      
    416000   300.27704     -1573.08       -1344.8374      6.306281       432000        -1445.2939      78.51452       153.50754     -359.80815    
    417000   314.90539     -1554.5306     -1315.1689     -44.568431      432000        -1439.7406      83.407803      153.34626     -351.54398    
    418000   329.89195     -1569.9488     -1319.1957     -27.286682      432000        -1450.9277      97.88322       143.34394     -360.24823    
    419000   323.81378     -1566.0407     -1319.9077     -3.62529        432000        -1460.6995      92.903325      160.72504     -358.9696     
    420000   323.08888     -1587.253      -1341.671       2.2419802      432000        -1462.6421      86.874556      149.05546     -360.54087    
    421000   313.94072     -1575.4739     -1336.8455     -10.036543      432000        -1446.6057      83.125038      143.77441     -355.76765    
    422000   309.98803     -1555.6332     -1320.0092      3.3800522      432000        -1426.6634      86.621947      138.43656     -354.02831    
    423000   318.8138      -1553.4727     -1311.1403     -19.809928      432000        -1423.6717      81.736912      145.88997     -357.4279     
    424000   303.1528      -1550.6292     -1320.2007     -37.558807      432000        -1422.0401      88.414113      143.67347     -360.67666    
    425000   323.14536     -1572.057      -1326.4321     -14.739667      432000        -1457           91.389674      153.31673     -359.7634     
    426000   318.46907     -1558.9336     -1316.8632      25.693587      432000        -1446.8502      83.148818      156.14431     -351.37656    
    427000   305.84487     -1559.5411     -1327.0664      32.139869      432000        -1439.6794      93.054475      143.82576     -356.74189    
    428000   333.84836     -1581.4785     -1327.7182     -19.550583      432000        -1442.7983      71.360227      147.78957     -357.83002    
    429000   288.62112     -1585.6899     -1366.3071     -9.5064917      432000        -1454.1617      82.937954      145.48522     -359.95129    
    430000   321.12303     -1606.336      -1362.2483     -60.9163        432000        -1475.6632      80.559385      147.30342     -358.53561    
    431000   318.87777     -1579.4917     -1337.1106      7.4743366      432000        -1443.6307      80.642934      143.05614     -359.56003    
    432000   327.44916     -1580.3659     -1331.4696      5.6305001      432000        -1463.2128      91.912176      150.74304     -359.80828    
    433000   310.94202     -1576.6555     -1340.3065     -29.405712      432000        -1436.9757      84.426886      135.96996     -360.0767     
    434000   317.78184     -1552.3569     -1310.8088     -30.35398       432000        -1432.6203      95.136868      142.33293     -357.20633    
    435000   320.67488     -1536.293      -1292.546       17.45378       432000        -1431.4492      81.861332      166.8228      -353.52801    
    436000   330.43054     -1561.1194     -1309.957      -30.396134      432000        -1441.8294      93.461149      145.59981     -358.35094    
    437000   320.75581     -1551.4402     -1307.6316     -11.817998      432000        -1441.291       97.63391       152.21558     -359.99862    
    438000   323.67807     -1580.0341     -1334.0043      14.05849       432000        -1450.6207      69.55394       154.86426     -353.83155    
    439000   320.2908      -1571.0632     -1327.608      -9.4795334      432000        -1449.0526      85.989999      153.95756     -361.95817    
    440000   301.72947     -1568.0132     -1338.6667     -19.316187      432000        -1450.0194      91.943033      149.66456     -359.60136    
    441000   295.667       -1570.7958     -1346.0574      11.511207      432000        -1430.7203      77.187964      141.31638     -358.57986    
    442000   300.26046     -1559.6803     -1331.4504     -40.968616      432000        -1452.1698      101.84969      148.96768     -358.32792    
    443000   305.49453     -1572.0789     -1339.8705      20.647395      432000        -1438.3056      87.352579      133.67675     -354.80263    
    444000   305.31484     -1568.439      -1336.3672     -3.1535358      432000        -1451.3401      84.363796      157.86989     -359.33261    
    445000   313.39642     -1564.9496     -1326.7349      50.99749       432000        -1442.9476      83.219975      150.45383     -355.67583    
    446000   301.69549     -1575.1067     -1345.786      -32.426756      432000        -1453.9803      89.62255       148.33952     -359.08846    
    447000   298.97714     -1564.1849     -1336.9304     -15.11446       432000        -1441.1705      78.066639      150.79911     -351.88014    
    448000   309.18586     -1558.475      -1323.4608      4.4050786      432000        -1446.0843      86.796421      163.94923     -363.13636    
    449000   323.75311     -1576.2008     -1330.1139     -9.9859496      432000        -1449.1886      90.404165      147.73505     -365.15134    
    450000   304.96506     -1550.8976     -1319.0916     -24.565594      432000        -1425.2385      84.350246      144.42877     -354.43812    
    451000   333.4909      -1590.973      -1337.4844      1.4086242      432000        -1457.1529      74.173484      150.36068     -358.35425    
    452000   301.29044     -1574.1182     -1345.1053     -3.7633515      432000        -1448.9961      84.311819      144.92689     -354.36077    
    453000   314.50016     -1601.5589     -1362.5053     -22.166639      432000        -1453.1795      81.784983      131.83223     -361.99665    
    454000   305.31678     -1589.5503     -1357.477      -47.955223      432000        -1460.7089      77.876692      148.24662     -354.96473    
    455000   313.51325     -1576.0927     -1337.7892     -6.3253446      432000        -1437.1718      78.274789      144.55592     -361.75158    
    456000   324.21024     -1589.2554     -1342.8211      9.2142747      432000        -1454.5974      74.386595      150.05946     -359.10409    
    457000   316.12478     -1573.1688     -1332.8803      5.9416307      432000        -1447.328       84.710872      143.34777     -353.89943    
    458000   298.28345     -1550.2074     -1323.4802     -30.058311      432000        -1433.7684      84.455458      152.42958     -353.3241     
    459000   307.58976     -1549.4581     -1315.6571     -12.849694      432000        -1456.2113      90.497363      172.10079     -355.84497    
    460000   339.49889     -1596.296      -1338.2406      18.627146      432000        -1459.9343      77.950414      145.63047     -359.94252    
    461000   295.76051     -1590.8144     -1366.0048      42.461613      432000        -1460.6007      79.208467      143.61641     -353.03849    
    462000   295.77919     -1603.0149     -1378.1912      9.2349884      432000        -1462.5684      82.131887      137.73836     -360.31679    
    463000   295.72935     -1594.5987     -1369.8128     -17.066915      432000        -1459.7585      72.193257      153.02895     -360.06235    
    464000   288.05208     -1584.2877     -1365.3375     -22.031387      432000        -1452.3615      74.263386      151.71207     -357.90168    
    465000   300.10091     -1605.988      -1377.8794     -23.573405      432000        -1458.4523      84.202889      128.11789     -359.85656    
    466000   295.33252     -1604.8162     -1380.332       33.827258      432000        -1463.0933      81.70446       136.68365     -360.111      
    467000   301.14044     -1575.4731     -1346.5743      23.497406      432000        -1440.7765      81.320598      141.02722     -357.04451    
    468000   307.40344     -1570.6269     -1336.9675      42.229489      432000        -1438.3761      79.599678      149.27961     -361.13006    
    469000   315.94397     -1577.6702     -1337.5191     -7.8249712      432000        -1438.5187      78.808104      142.15828     -360.11786    
    470000   289.53595     -1568.9928     -1348.9147      32.639878      432000        -1440.3646      81.629355      147.88182     -358.13944    
    471000   292.32348     -1580.8799     -1358.6829     -29.77542       432000        -1442.2664      68.452473      149.70555     -356.7716     
    472000   278.27543     -1568.4678     -1356.9488      10.950078      432000        -1458.9756      79.419243      165.99051     -354.90199    
    473000   297.87751     -1590.2958     -1363.8772      25.961191      432000        -1438.1386      70.310401      135.26702     -357.73463    
    474000   293.88865     -1588.3289     -1364.9422      0.14125761     432000        -1444.5459      70.15784       147.63707     -361.57788    
    475000   303.53187     -1580.5601     -1349.8435     -44.708172      432000        -1428.2021      73.016673      133.74598     -359.12066    
    476000   290.33447     -1571.489      -1350.8038      15.957013      432000        -1439.1391      80.026957      147.93058     -360.30742    
    477000   284.8796      -1579.3079     -1362.7691     -14.997927      432000        -1440.091       84.107977      132.12089     -355.44583    
    478000   301.84725     -1580.379      -1350.9429     -10.421757      432000        -1438.6859      67.668142      154.40923     -363.77039    
    479000   334.85255     -1580.2769     -1325.7533     -31.106055      432000        -1452.0749      81.799543      146.92968     -356.93129    
    480000   310.59832     -1569.0714     -1332.9836     -13.286164      432000        -1450.0278      81.393017      155.04228     -355.47891    
    481000   320.07075     -1559.1782     -1315.8903     -34.493852      432000        -1426.7242      76.917694      145.64231     -355.01396    
    482000   325.86635     -1557.4639     -1309.7707     -20.671509      432000        -1428.5674      81.614353      141.89373     -352.4046     
    483000   334.48678     -1550.0075     -1295.7619     -13.174255      432000        -1438.1855      89.670105      150.85491     -352.34694    
    484000   353.33203     -1576.2311     -1307.6611      26.362266      432000        -1461.935       84.760634      151.81925     -350.87601    
    485000   315.35243     -1551.0195     -1311.3181     -29.075934      432000        -1443.2164      95.521151      154.2978      -357.62206    
    486000   311.62341     -1563.7205     -1326.8535     -9.7976367      432000        -1433.6908      84.873678      145.15045     -360.05385    
    487000   302.51645     -1568.0387     -1338.0939     -3.2431221      432000        -1444.5748      70.603607      164.73681     -358.80426    
    488000   295.97868     -1565.2222     -1340.2469      16.12808       432000        -1442.0127      88.598616      142.31087     -354.11902    
    489000   297.48262     -1566.837      -1340.7185     -39.967473      432000        -1455.8671      90.175253      152.33462     -353.47971    
    490000   319.12846     -1579.0226     -1336.451       17.427994      432000        -1445.8991      80.863853      141.24248     -355.22989    
    491000   294.70164     -1578.577      -1354.5723     -12.986183      432000        -1448.6957      85.799557      143.46454     -359.14536    
    492000   321.35106     -1576.5817     -1332.3207     -0.6170239      432000        -1428.4077      68.970528      137.05907     -354.20365    
    493000   306.91695     -1560.4306     -1327.141       39.596208      432000        -1448.2033      86.560133      156.46748     -355.25491    
    494000   329.6407      -1588.6733     -1338.1112      22.377811      432000        -1440.9439      79.164248      128.84055     -355.73418    
    495000   328.11979     -1576.8741     -1327.4681      7.9909166      432000        -1457.4993      89.191899      141.74258     -350.30927    
    496000   317.4508      -1572.2469     -1330.9504     -21.694769      432000        -1447.9883      81.425989      141.2418      -346.92642    
    497000   319.41434     -1562.4268     -1319.6379     -16.700657      432000        -1436.2631      83.510979      144.14735     -353.82203    
    498000   313.43499     -1566.4151     -1328.1711     -8.507009       432000        -1447.6201      84.700703      151.0621      -354.55779    
    499000   335.07069     -1564.7289     -1310.0395     -1.4995924      432000        -1438.2358      88.938478      142.64265     -358.07427    
    500000   338.76554     -1567.0405     -1309.5426      22.88734       432000        -1443.8968      65.692181      169.01328     -357.84918    
    501000   325.39917     -1558.287      -1310.9489     -9.2965633      432000        -1452.7858      92.509655      153.11964     -351.13045    
    502000   316.25574     -1575.7339     -1335.3458     -4.6713213      432000        -1441.4967      71.893356      152.53339     -358.66391    
    503000   290.7286      -1551.4671     -1330.4824     -17.20793       432000        -1428.4406      83.299182      147.2825      -353.60821    
    504000   288.55453     -1558.4147     -1339.0825     -22.531363      432000        -1419.2569      87.506192      128.47848     -355.14247    
    505000   268.30922     -1551.382      -1347.4384     -25.823881      432000        -1453.3444      85.516323      163.48626     -347.04018    
    506000   312.11403     -1575.8416     -1338.6016     -36.563705      432000        -1460.3398      84.964081      154.96644     -355.43224    
    507000   331.63182     -1567.6661     -1315.5906      47.043076      432000        -1437.8274      80.240142      144.77338     -354.85221    
    508000   314.72961     -1564.5568     -1325.3287      11.141051      432000        -1441.79        80.804641      150.00877     -353.58017    
    509000   329.42016     -1546.0292     -1295.6347     -13.190225      432000        -1422.885       83.435607      145.97261     -352.55241    
    510000   341.01881     -1530.934      -1271.7234      43.371452      432000        -1427.8734      95.496383      151.84963     -350.40659    
    511000   331.79752     -1547.1859     -1294.9844      30.191177      432000        -1450.2998      103.69891      159.03297     -359.61804    
    512000   323.79869     -1538.7329     -1292.6114     -5.182589       432000        -1444.2375      89.259845      169.16962     -352.92487    
    513000   337.37735     -1558.0084     -1301.5657      10.360136      432000        -1434.1355      83.046         150.32762     -357.24658    
    514000   298.13388     -1565.9989     -1339.3854      11.245024      432000        -1447.0335      84.082077      150.36279     -353.41027    
    515000   323.92711     -1565.618      -1319.3989      25.4615        432000        -1427.1037      78.044011      144.15224     -360.71058    
    516000   340.1185      -1588.4383     -1329.912       40.999533      432000        -1449.0086      70.999691      143.23015     -353.65949    
    517000   304.02706     -1569.9908     -1338.8979      14.352082      432000        -1438.2633      79.949278      148.17994     -359.85681    
    518000   304.65965     -1569.2709     -1337.6971      11.766557      432000        -1451.047       92.085266      149.3362      -359.64544    
    519000   310.57531     -1553.1424     -1317.0721     -15.512554      432000        -1441.1158      83.826165      156.01584     -351.86867    
    520000   356.37295     -1573.2914     -1302.41        84.119522      432000        -1451.0397      77.584865      158.47804     -358.31458    
    521000   312.30645     -1545.5481     -1308.1619     -14.489551      432000        -1440.791       77.201474      177.03534     -358.99386    
    522000   323.10873     -1571.6386     -1326.0415      57.213478      432000        -1435.5741      77.510346      139.95044     -353.52531    
    523000   294.15435     -1564.3108     -1340.7221      5.2812684      432000        -1432.2206      76.068501      145.05251     -353.21121    
    524000   329.93945     -1588.018      -1337.2288     -26.482367      432000        -1461.609       79.740448      150.02529     -356.17476    
    525000   303.83207     -1586.1293     -1355.1845      19.616825      432000        -1478.506       95.243173      149.85883     -352.72535    
    526000   319.35151     -1569.789      -1327.0478     -26.765845      432000        -1451.0794      87.193262      151.74601     -357.64892    
    527000   311.23032     -1561.6845     -1325.1163      10.784598      432000        -1442.2998      79.313809      158.3781      -357.07654    
[...]
   1875000   316.70792     -1631.8849     -1391.1532     -27.854241      432000        -1536.2009      90.633006      168.223       -354.54       
   1876000   309.59137     -1626.2068     -1390.8843      2.6448203      432000        -1499.042       81.233033      147.92405     -356.32187    
   1877000   309.89193     -1650.2186     -1414.6677      3.1072559      432000        -1519.4604      90.339196      134.66758     -355.76501    
   1878000   307.33518     -1623.4187     -1389.8112     -1.93839        432000        -1518.6651      86.641946      159.62033     -351.01587    
   1879000   298.60829     -1650.6066     -1423.6324      6.0959399      432000        -1547.5631      71.883217      180.865       -355.79166    
   1880000   310.68499     -1652.4768     -1416.3231     -6.8358743      432000        -1533.8126      83.404045      154.53042     -356.59866    
   1881000   337.3991      -1650.5645     -1394.1052      26.42818       432000        -1525.4777      87.271739      139.06962     -351.42809    
   1882000   321.67056     -1652.0772     -1407.5733      42.508975      432000        -1529.1882      80.886922      157.2196      -360.99551    
   1883000   315.61554     -1626.2016     -1386.3001     -48.388538      432000        -1510.057       86.002944      156.05528     -358.20276    
   1884000   298.2607      -1647.4608     -1420.7509      17.292057      432000        -1537.898       84.253876      162.3611      -356.1778     
   1885000   306.52996     -1651.5878     -1418.5923      26.861385      432000        -1515.9915      75.901254      144.77924     -356.27679    
   1886000   302.36931     -1638.4978     -1408.6649      6.9681375      432000        -1521.6711      73.818181      169.03676     -359.68159    
   1887000   324.13293     -1638.3243     -1391.9487     -12.329937      432000        -1525.9313      99.391656      147.95736     -359.74199    
   1888000   340.82402     -1644.4672     -1385.4047     -32.364552      432000        -1530.5308      76.430342      162.57813     -352.94495    
   1889000   333.13165     -1650.1237     -1396.9082      27.045592      432000        -1518.4362      77.171719      143.39222     -352.25147    
   1890000   313.01983     -1642.3996     -1404.4712     -12.050782      432000        -1535.8702      80.25479       166.6429      -353.42717    
   1891000   295.79282     -1635.6157     -1410.7816      5.5440502      432000        -1515.933       88.598678      148.39527     -356.67665    
   1892000   313.79621     -1660.5398     -1422.0212     -6.0852475      432000        -1541.0481      83.075745      154.81627     -357.38374    
   1893000   312.58919     -1654.7102     -1417.1091      31.757353      432000        -1528.378       91.878295      140.16464     -358.37512    
   1894000   292.38749     -1643.8676     -1421.6219     -18.579189      432000        -1519.0466      79.175568      151.54034     -355.53683    
   1895000   304.89038     -1674.2225     -1442.4733      4.6635778      432000        -1530.7269      72.891723      139.2946      -355.68187    
   1896000   275.34952     -1662.0466     -1452.7517      2.4763669      432000        -1552.3436      76.462551      167.24332     -353.40885    
   1897000   293.96499     -1667.8192     -1444.3744      2.5237187      432000        -1538.998       67.746429      155.66207     -352.22963    
   1898000   299.70671     -1662.7273     -1434.9182     -14.736386      432000        -1534.0345      84.518244      140.91889     -354.12996    
   1899000   286.57887     -1660.7905     -1442.96        14.764508      432000        -1520.8172      74.470533      142.8306      -357.27436    
   1900000   297.70858     -1661.9496     -1435.6594      8.8466583      432000        -1522.1044      64.492721      151.18185     -355.51985    
   1901000   299.97117     -1648.6719     -1420.6618      42.22636       432000        -1517.9284      74.975111      146.48346     -352.20205    
   1902000   296.4831      -1663.3878     -1438.0291      19.131514      432000        -1551.1621      77.35726       166.13536     -355.71837    
   1903000   310.95064     -1652.5163     -1416.1607      2.4956908      432000        -1530.4771      85.8115        145.28364     -353.13432    
   1904000   283.82756     -1634.1369     -1418.3977      21.913819      432000        -1517.7508      80.145463      157.67574     -354.2073     
   1905000   284.84773     -1640.4998     -1423.9852      18.299986      432000        -1529.2424      82.975557      157.51774     -351.75074    
   1906000   292.05762     -1651.3377     -1429.3428     -37.520148      432000        -1529.3785      79.146198      151.21589     -352.32125    
   1907000   310.42624     -1656.1795     -1420.2224      28.007602      432000        -1531.7672      68.461348      158.60465     -351.47829    
   1908000   302.94516     -1636.668      -1406.3974     -16.631988      432000        -1522.1137      86.639999      152.26402     -353.45825    
   1909000   296.44397     -1647.0012     -1421.6722      7.4883419      432000        -1526.6425      82.15163       150.07134     -352.58172    
   1910000   315.92965     -1657.6675     -1417.5273     -11.060639      432000        -1537.5659      79.128084      154.90959     -354.13926    
   1911000   296.00715     -1644.2828     -1419.2859     -21.447614      432000        -1511.5297      81.15747       143.39342     -357.30401    
   1912000   309.07872     -1663.7202     -1428.7875      17.030316      432000        -1532.9751      68.728333      154.84495     -354.31845    
   1913000   308.45088     -1637.1884     -1402.7329     -39.653668      432000        -1522.7754      82.376281      155.4914      -352.28068    
   1914000   350.36209     -1641.2674     -1374.9549     -2.267342       432000        -1538.7193      78.992892      173.75518     -355.29619    
   1915000   324.13445     -1627.4816     -1381.1049     -12.188716      432000        -1532.4079      95.647607      164.48627     -355.20757    
   1916000   306.5934      -1637.1326     -1404.089       24.451198      432000        -1522.7007      87.609222      152.40793     -354.44908    
   1917000   303.53257     -1637.643      -1406.9259     -18.929862      432000        -1526.7009      90.488993      153.17787     -354.60899    
   1918000   341.25399     -1656.6179     -1397.2285      5.2550307      432000        -1535.4668      75.195947      158.14973     -354.49686    
   1919000   307.43458     -1620.8529     -1387.1699      24.966092      432000        -1514.2157      84.007502      166.12096     -356.76569    
   1920000   297.40711     -1640.0257     -1413.9646      15.69018       432000        -1526.9253      88.009747      155.33665     -356.44683    
   1921000   321.07334     -1637.5192     -1393.4693     -16.352875      432000        -1510.2979      91.095175      137.15253     -355.46904    
   1922000   327.33146     -1658.1783     -1409.3715      23.850374      432000        -1537.2366      79.974606      151.28764     -352.20398    
   1923000   294.66995     -1632.462      -1408.4815     -9.6064027      432000        -1518.688       89.911849      148.5129      -352.19879    
   1924000   300.59628     -1660.2106     -1431.7254     -14.182774      432000        -1563.9485      89.208435      166.36563     -351.83609    
   1925000   294.44915     -1670.445      -1446.6323      24.242746      432000        -1559.491       79.283385      160.93927     -351.17671    
   1926000   308.7321      -1655.792      -1421.1227      0.46132956     432000        -1530.3866      82.725427      144.35296     -352.4838     
   1927000   329.70481     -1658.9597     -1408.3489     -33.648342      432000        -1534.7215      87.886375      141.67417     -353.79876    
   1928000   307.02713     -1647.1844     -1413.811       15.206513      432000        -1520.9153      74.557331      153.50002     -354.32636    
   1929000   310.81452     -1652.2783     -1416.0262      10.240013      432000        -1529.8762      82.432847      148.87766     -353.71262    
   1930000   304.84622     -1635.8412     -1404.1256     -33.043612      432000        -1529.6308      97.792965      147.01406     -351.01744    
   1931000   318.79088     -1653.9953     -1411.6803      31.139068      432000        -1548.0065      96.43069       149.30012     -351.71959    
   1932000   296.1584      -1647.8429     -1422.7309      0.22398662     432000        -1525.5288      73.276555      152.43495     -348.02561    
   1933000   286.44176     -1663.6142     -1445.888       0.746993       432000        -1555.7633      83.493469      160.34632     -351.69078    
   1934000   302.12269     -1664.7741     -1435.1286     -4.2669962      432000        -1545.4796      84.713905      146.92132     -350.92964    
   1935000   299.68088     -1650.5143     -1422.7249     -24.587544      432000        -1546.5967      90.806143      156.10824     -350.83199    
   1936000   317.60788     -1666.1244     -1424.7086     -7.77244        432000        -1549.1513      83.051786      154.73741     -354.76226    
   1937000   310.74837     -1667.8782     -1431.6763     -3.4495401      432000        -1533.3463      68.244932      152.2548      -355.03155    
   1938000   293.73567     -1677.9048     -1454.6344     -28.437715      432000        -1549.7447      79.106819      145.15862     -352.42547    
   1939000   309.55653     -1666.3178     -1431.0218     -16.71792       432000        -1536.2756      73.806073      151.33988     -355.18811    
   1940000   297.78245     -1650.8581     -1424.5117     -24.768079      432000        -1525.1071      84.852761      146.90717     -357.51092    
   1941000   298.66696     -1642.5098     -1415.4911     -33.36853       432000        -1526.9273      84.938584      155.05979     -355.58086    
   1942000   319.29123     -1646.6231     -1403.9278     -20.506847      432000        -1520.7397      81.719929      153.27551     -360.87885    
   1943000   294.99838     -1645.571      -1421.3408     -12.746237      432000        -1528.8817      93.192872      146.94714     -356.82938    
   1944000   300.98413     -1663.5774     -1434.7974      8.420323       432000        -1535.6733      85.923783      138.46754     -352.29544    
   1945000   311.38054     -1659.1446     -1422.4622      64.824182      432000        -1541.3759      84.517891      151.30917     -353.59571    
   1946000   317.68211     -1651.8875     -1410.4153      18.730223      432000        -1536.5005      79.160006      159.44075     -353.98772    
   1947000   294.54703     -1643.7604     -1419.8732     -1.6905275      432000        -1537.5983      92.993181      157.15863     -356.31388    
   1948000   324.32319     -1662.104      -1415.5838      18.198059      432000        -1528.3927      76.823225      143.67322     -354.20768    
   1949000   328.60134     -1661.3177     -1411.5456      14.813277      432000        -1517.2507      71.860789      138.73437     -354.6621     
   1950000   304.7385      -1669.3151     -1437.6813     -38.577656      432000        -1543.501       88.086752      143.00877     -356.90956    
   1951000   272.35985     -1648.9889     -1441.9664      0.53656637     432000        -1545.0143      81.527011      171.73476     -357.23635    
   1952000   279.19785     -1667.4311     -1455.211      -17.439442      432000        -1543.746       85.493885      144.78384     -353.96287    
   1953000   294.94689     -1648.0988     -1423.9077     -2.3913692      432000        -1527.2482      83.047633      154.89457     -358.79277    
   1954000   309.37686     -1666.6088     -1431.4494     -5.9012816      432000        -1532.5842      72.178649      147.88795     -354.09117    
   1955000   336.08441     -1640.2531     -1384.7931     -14.157659      432000        -1533.5479      91.991801      160.24734     -358.94429    
   1956000   335.01681     -1656.4672     -1401.8188      58.669995      432000        -1535.4567      92.729079      144.94708     -358.68674    
   1957000   327.50692     -1635.6473     -1386.7072     -17.959536      432000        -1522.3816      97.52342       145.20498     -355.99416    
   1958000   318.33797     -1640.4282     -1398.4575      18.04836       432000        -1515.3434      78.308205      154.22277     -357.61577    
   1959000   296.84536     -1633.8752     -1408.2411     -46.488304      432000        -1507.2793      72.918988      156.46852     -355.98343    
   1960000   336.11033     -1652.6711     -1397.1914      37.308552      432000        -1509.2342      79.566815      134.90536     -357.90908    
   1961000   316.2459      -1635.5354     -1395.1548      51.010771      432000        -1526.3514      101.25401      143.15157     -353.58957    
   1962000   301.96612     -1627.5559     -1398.0294     -33.03134       432000        -1507.9445      79.623709      155.63741     -354.87244    
   1963000   313.71864     -1653.7156     -1415.256      -11.033808      432000        -1524.7095      79.704825      145.41589     -354.12686    
   1964000   302.17683     -1642.3095     -1412.6229      8.9925986      432000        -1524.2475      86.359056      151.49654     -355.91756    
   1965000   322.96        -1658.4432     -1412.9592      8.3170103      432000        -1527.8362      74.575075      154.17328     -359.35532    
   1966000   322.70475     -1635.6509     -1390.3609     -5.0084978      432000        -1515.6728      85.764759      144.88199     -350.62493    
   1967000   329.81526     -1653.125      -1402.4303      24.80803       432000        -1528.5043      75.929326      156.61338     -357.16345    
   1968000   302.41459     -1623.0853     -1393.218       10.562511      432000        -1514.7082      89.479728      157.23906     -355.09589    
   1969000   304.96311     -1634.8161     -1403.0117     -34.720977      432000        -1526.1706      91.532453      159.97311     -360.15113    
   1970000   317.25415     -1645.5        -1404.3531      9.4790608      432000        -1527.3016      89.060713      149.32673     -356.58583    
   1971000   318.25835     -1634.5665     -1392.6563     -31.489139      432000        -1504.1413      73.364278      146.97066     -350.76015    
   1972000   307.62555     -1611.6662     -1377.838      -14.233243      432000        -1507.8971      99.430273      153.63272     -356.83215    
   1973000   309.68545     -1625.6579     -1390.264      -22.159223      432000        -1510.2838      92.587122      148.52075     -356.48197    
   1974000   305.75599     -1635.7296     -1403.3224     -11.226315      432000        -1505.7068      74.638004      143.37106     -348.03186    
   1975000   303.17116     -1653.4437     -1423.0013     -10.73412       432000        -1526.3114      69.399737      161.11423     -357.64627    
   1976000   286.41676     -1630.108      -1412.4007      39.477845      432000        -1518.6515      80.969753      163.27256     -355.6988     
   1977000   303.23561     -1657.8952     -1427.4039     -4.8714997      432000        -1529.8326      84.554775      145.30119     -357.91857    
   1978000   287.06651     -1651.7942     -1433.5931     -31.948987      432000        -1517.6555      80.851156      140.76657     -355.75642    
   1979000   311.94888     -1656.4526     -1419.3382     -15.351773      432000        -1529.2921      86.688732      140.9128      -354.76204    
   1980000   292.96142     -1640.4674     -1417.7855     -0.87218772     432000        -1533.4749      88.774814      158.26887     -354.03622    
   1981000   318.52844     -1628.5181     -1386.4025     -4.9119852      432000        -1498.8287      72.783638      157.17311     -359.6461     
   1982000   311.2173      -1641.2329     -1404.6746     -5.926967       432000        -1514.0046      83.227342      140.2155      -350.67119    
   1983000   305.57099     -1608.6533     -1376.3868     -24.290448      432000        -1498.9087      87.321914      156.33665     -353.40324    
   1984000   319.00367     -1619.5142     -1377.0374      6.1378517      432000        -1514.6671      99.097963      155.49352     -359.43857    
   1985000   331.32209     -1628.2034     -1376.3633      16.568446      432000        -1518.5257      85.166251      159.49372     -354.33773    
   1986000   325.22377     -1632.0976     -1384.8928     -12.601029      432000        -1511.6441      92.683399      140.06976     -353.20661    
   1987000   326.60269     -1628.4445     -1380.1916      36.555624      432000        -1515.9061      92.711877      153.37127     -358.62148    
   1988000   327.45136     -1634.1531     -1385.2551      29.025785      432000        -1514.6873      82.203831      156.13021     -357.79983    
   1989000   327.81604     -1650.685      -1401.5099     -20.891273      432000        -1541.1232      84.633328      152.64897     -346.84414    
   1990000   312.78691     -1656.1978     -1418.4464     -29.887837      432000        -1544.662       87.314462      156.95476     -355.80502    
   1991000   304.56445     -1653.5589     -1422.0575      8.9388477      432000        -1556.2584      87.174785      168.68555     -353.16087    
   1992000   315.45138     -1653.3579     -1413.5813      26.166623      432000        -1532.3381      83.373191      153.31339     -357.70638    
   1993000   335.85018     -1658.3851     -1403.1032      5.6997136      432000        -1544.1167      86.527725      153.94358     -354.73964    
   1994000   334.77385     -1655.1561     -1400.6923      41.991846      432000        -1540.9888      80.288188      159.41117     -353.86661    
   1995000   351.36506     -1651.3915     -1384.3166     -9.9157628      432000        -1533.1903      87.979666      148.98425     -355.16514    
   1996000   330.63698     -1640.4559     -1389.1366      47.772268      432000        -1529.6533      85.936898      148.55803     -345.29759    
   1997000   341.36679     -1651.8115     -1392.3363      38.707635      432000        -1519.9158      80.276574      138.38776     -350.55997    
   1998000   309.62308     -1646.2373     -1410.8907      17.046772      432000        -1533.7683      85.583751      153.34169     -351.39441    
   1999000   289.32888     -1656.7302     -1436.8094      5.5525618      432000        -1536.3506      88.591408      144.07626     -353.04722    
   2000000   308.53449     -1652.7889     -1418.2698     -18.853878      432000        -1549.0178      83.68981       158.10422     -345.56509    
Loop time of 88.3883 on 1 procs for 2000000 steps with 256 atoms

Performance: 3910.019 ns/day, 0.006 hours/ns, 22627.423 timesteps/s, 5.793 Matom-step/s
99.7% CPU use with 1 MPI tasks x no OpenMP threads

MPI task timing breakdown:
Section |  min time  |  avg time  |  max time  |%varavg| %total
---------------------------------------------------------------
Pair    | 53.181     | 53.181     | 53.181     |   0.0 | 60.17
Bond    | 17.489     | 17.489     | 17.489     |   0.0 | 19.79
Neigh   | 6.6167     | 6.6167     | 6.6167     |   0.0 |  7.49
Comm    | 1.2166     | 1.2166     | 1.2166     |   0.0 |  1.38
Output  | 0.074505   | 0.074505   | 0.074505   |   0.0 |  0.08
Modify  | 8.9533     | 8.9533     | 8.9533     |   0.0 | 10.13
Other   |            | 0.8572     |            |       |  0.97

Nlocal:            256 ave         256 max         256 min
Histogram: 1 0 0 0 0 0 0 0 0 0
Nghost:            165 ave         165 max         165 min
Histogram: 1 0 0 0 0 0 0 0 0 0
Neighs:          11723 ave       11723 max       11723 min
Histogram: 1 0 0 0 0 0 0 0 0 0

Total # of neighbors = 11723
Ave neighs/atom = 45.792969
Ave special neighs/atom = 8.1875
Neighbor list builds = 41042
Dangerous builds = 0

write_data  system_after_nvt.data
System init for write_data ...
Generated 3 of 3 mixed pair_coeff terms from arithmetic mixing rule
Total wall time: 0:01:28
